38
 energy: -1981.479686058685 gnorm: 0.002068531209 xtb: 6.7.1 (edcfbbe)
C            4.26113289202473       -3.70164545413886       -2.13473089456755
C            3.26822786813388       -3.91906473360611       -1.01758912694467
O            3.09063573120671       -2.69238011599521       -0.23372771529022
C            2.24884155916619       -1.77271609326962       -0.72770578373473
O            1.58229459138761       -1.92003634330775       -1.73633474757325
C            2.27406619878086       -0.51697543671431        0.10538256155223
C            0.97114208621911        0.26786847918083        0.00046891794662
H            0.66703545579325        0.31968120761312       -1.05478543567318
C            1.15065839645715        1.71493887745620        0.43864506875343
O            2.13333842384422        2.35923842311808        0.11904031055563
O            0.11667788182042        2.18684536710739        1.12532545901173
C            0.09952062501866        3.62224926210761        1.42809953218731
C           -0.44706827368991        4.39231069351594        0.24994400077434
S           -0.35284734938557       -0.67470262386006        0.88298513884328
P           -2.11183958733117        0.02589271766302       -0.07931719415386
S           -1.92147419668802        0.50933999874159       -1.95082696722135
O           -3.12458680266329       -1.17019059985592        0.30323078960014
C           -3.05467591499040       -2.43775825964196       -0.40944429667695
O           -2.73890641029019        1.23330895481709        0.77047513187963
C           -2.91037313220840        1.14314335982524        2.21540814496542
H            4.42063846255772       -4.65057841604412       -2.65644606634400
H            3.89520057596324       -2.96944115598641       -2.85957973041059
H            5.22274151039741       -3.36264664524775       -1.73870778921951
H            3.63646205564956       -4.64139427182810       -0.28745890958869
H            2.29201218972150       -4.24269312026309       -1.38635614798539
H            3.08304717548170        0.10327416006415       -0.30094110861369
H            2.53652072032287       -0.74524048699486        1.14154961505589
H           -0.55485180229231        3.69227302173830        2.29888433864522
H            1.10963294584992        3.93504003097289        1.70236256344266
H            0.19887807195105        4.29097821785214       -0.62648578942168
H           -1.45292608269032        4.04510710643538       -0.00420796601906
H           -0.50447958329054        5.45254267403408        0.51524978077258
H           -3.77895005009614       -3.08841531740758        0.08021020062739
H           -2.05239636388671       -2.86849165851524       -0.33260238967149
H           -3.32626729829959       -2.28869390483439       -1.45746647958060
H           -3.62568921500439        0.35498482224080        2.46181070188324
H           -3.29951244340141        2.11423838657378        2.52165764628295
H           -1.94844789096929        0.95547091730464        2.69954792403062
38
 energy: -1981.479689590026 gnorm: 0.000937664404 xtb: 6.7.1 (edcfbbe)
C            4.26118290253031       -3.70215046546495       -2.13453947255780
C            3.26766123548103       -3.91945138593567       -1.01780392976292
O            3.09022819369591       -2.69235312983852       -0.23407127985610
C            2.24930327481719       -1.77222090418565       -0.72856721992277
O            1.58384010884874       -1.91899577118634       -1.73780745409162
C            2.27437113039266       -0.51648653984580        0.10466572199042
C            0.97176071219819        0.26872028232114       -0.00009951084100
H            0.66734950520320        0.32141596981195       -1.05506465379294
C            1.15139477717866        1.71439145288192        0.44139675564389
O            2.13345806623672        2.35986314215598        0.12075250741732
O            0.11671545572370        2.18635620770797        1.12621223695754
C            0.09924110845327        3.62209418406388        1.42816529130142
C           -0.44738108721688        4.39241337148006        0.25018117605556
S           -0.35239030264931       -0.67227683948923        0.88321982473179
P           -2.11206030628847        0.02499054597511       -0.07956310377683
S           -1.92324986542948        0.50880303173398       -1.95089096139363
O           -3.12477019867279       -1.17087816916047        0.30303759229259
C           -3.05517455297368       -2.43875207070547       -0.40926642178341
O           -2.73898657244381        1.23248032706291        0.76981131534990
C           -2.90970374825935        1.14346306037134        2.21501666580596
H            4.42033277945664       -4.65091977939802       -2.65658437097845
H            3.89590778439457       -2.96948456943777       -2.85913346436349
H            5.22269411205870       -3.36367949174975       -1.73803557452934
H            3.63542394583651       -4.64181587222155       -0.28737836534870
H            2.29133540035278       -4.24263997181581       -1.38665735457326
H            3.08374107763955        0.10370152549859       -0.30112352354590
H            2.53669228002727       -0.74565118045124        1.14064873576106
H           -0.55526466895375        3.69310766700830        2.29870431823247
H            1.10890117325388        3.93545564471734        1.70321075154455
H            0.19903393348797        4.29079070967041       -0.62594381643400
H           -1.45291717791147        4.04480743724683       -0.00444922605866
H           -0.50499851056924        5.45274312719117        0.51496244276009
H           -3.77927637933121       -3.08938354679684        0.08060845648305
H           -2.05288521344750       -2.86946175008016       -0.33245808526027
H           -3.32675491579363       -2.28980756122440       -1.45718368176909
H           -3.62534649592716        0.35587558810121        2.46214545368962
H           -3.29824810928476        2.11491317962483        2.52045087973950
H           -1.94774104890397        0.95570085816022        2.69875062816275
38
 energy: -1981.479689590026 gnorm: 0.000937664404 xtb: 6.7.1 (edcfbbe)
C            4.26118290253031       -3.70215046546495       -2.13453947255780
C            3.26766123548103       -3.91945138593567       -1.01780392976292
O            3.09022819369591       -2.69235312983852       -0.23407127985610
C            2.24930327481719       -1.77222090418565       -0.72856721992277
O            1.58384010884874       -1.91899577118634       -1.73780745409162
C            2.27437113039266       -0.51648653984580        0.10466572199042
C            0.97176071219819        0.26872028232114       -0.00009951084100
H            0.66734950520320        0.32141596981195       -1.05506465379294
C            1.15139477717866        1.71439145288192        0.44139675564389
O            2.13345806623672        2.35986314215598        0.12075250741732
O            0.11671545572370        2.18635620770797        1.12621223695754
C            0.09924110845327        3.62209418406388        1.42816529130142
C           -0.44738108721688        4.39241337148006        0.25018117605556
S           -0.35239030264931       -0.67227683948923        0.88321982473179
P           -2.11206030628847        0.02499054597511       -0.07956310377683
S           -1.92324986542948        0.50880303173398       -1.95089096139363
O           -3.12477019867279       -1.17087816916047        0.30303759229259
C           -3.05517455297368       -2.43875207070547       -0.40926642178341
O           -2.73898657244381        1.23248032706291        0.76981131534990
C           -2.90970374825935        1.14346306037134        2.21501666580596
H            4.42033277945664       -4.65091977939802       -2.65658437097845
H            3.89590778439457       -2.96948456943777       -2.85913346436349
H            5.22269411205870       -3.36367949174975       -1.73803557452934
H            3.63542394583651       -4.64181587222155       -0.28737836534870
H            2.29133540035278       -4.24263997181581       -1.38665735457326
H            3.08374107763955        0.10370152549859       -0.30112352354590
H            2.53669228002727       -0.74565118045124        1.14064873576106
H           -0.55526466895375        3.69310766700830        2.29870431823247
H            1.10890117325388        3.93545564471734        1.70321075154455
H            0.19903393348797        4.29079070967041       -0.62594381643400
H           -1.45291717791147        4.04480743724683       -0.00444922605866
H           -0.50499851056924        5.45274312719117        0.51496244276009
H           -3.77927637933121       -3.08938354679684        0.08060845648305
H           -2.05288521344750       -2.86946175008016       -0.33245808526027
H           -3.32675491579363       -2.28980756122440       -1.45718368176909
H           -3.62534649592716        0.35587558810121        2.46214545368962
H           -3.29824810928476        2.11491317962483        2.52045087973950
H           -1.94774104890397        0.95570085816022        2.69875062816275
