 Entering Gaussian System
 *********************************************
 Gaussian 98:
 frequency output generated by the xtb code
 *********************************************
                         Standard orientation:
 --------------------------------------------------------------------
  Center     Atomic     Atomic              Coordinates (Angstroms)
  Number     Number      Type              X           Y           Z
 --------------------------------------------------------------------
    1          6             0        0.599052   -1.605000    2.886468
    2          6             0        1.718742   -0.599938    2.704172
    3          8             0        1.487111    0.192640    1.515735
    4         15             0        2.301914    0.003802    0.174996
    5         16             0        2.981564   -1.794910   -0.217148
    6          8             0        3.415278    1.127704    0.354729
    7          6             0        4.474031    1.329622   -0.606549
    8          6             0        5.780580    0.758796   -0.089277
    9         16             0        0.988087    0.864780   -1.236540
   10          6             0        0.216217   -0.664564   -1.840503
   11         16             0       -0.774840   -1.519634   -0.588224
   12         15             0       -2.210057    0.010617   -0.277682
   13         16             0       -2.725796    1.035534   -1.870420
   14          8             0       -1.582297    0.833578    0.917118
   15          6             0       -1.616487    2.270302    0.997899
   16          6             0       -2.912650    2.745604    1.620792
   17          8             0       -3.361874   -0.756397    0.499624
   18          6             0       -4.208449   -1.744494   -0.126308
   19          6             0       -5.523676   -1.132642   -0.570280
   20          1             0       -0.362929   -1.098163    2.871388
   21          1             0        0.617690   -2.338511    2.082736
   22          1             0        0.725661   -2.114058    3.836607
   23          1             0        2.686370   -1.102911    2.621020
   24          1             0        1.748600    0.121158    3.522686
   25          1             0        4.195481    0.865178   -1.556578
   26          1             0        4.536182    2.411718   -0.735556
   27          1             0        5.705330   -0.321383    0.014638
   28          1             0        6.573169    0.992310   -0.793226
   29          1             0        6.020832    1.190858    0.878040
   30          1             0        0.987728   -1.368321   -2.151123
   31          1             0       -0.417968   -0.369879   -2.676159
   32          1             0       -0.749582    2.527256    1.609084
   33          1             0       -1.491554    2.686384   -0.007763
   34          1             0       -2.879789    3.824287    1.738268
   35          1             0       -3.749260    2.482722    0.975245
   36          1             0       -3.057075    2.279306    2.591459
   37          1             0       -3.679451   -2.194022   -0.971676
   38          1             0       -4.365133   -2.500633    0.645376
   39          1             0       -5.355666   -0.394884   -1.351716
   40          1             0       -6.167858   -1.916652   -0.956000
   41          1             0       -6.013314   -0.649052    0.270361
 --------------------------------------------------------------------
     1 basis functions        1 primitive gaussians
     1 alpha electrons        1 beta electrons
 
 Harmonic frequencies (cm**-1), IR intensities (km*mol⁻¹),
 Raman scattering activities (A**4/amu), Raman depolarization ratios,
 reduced masses (AMU), force constants (mDyne/A) and normal coordinates:
                      1                      2                      3
                        a                      a                      a 
 Frequencies --    48.4173                49.1715                50.2186
 Red. masses --    22.1660                21.1863                18.1705
 Frc consts  --     0.0000                 0.0000                 0.0000
 IR Inten    --     2.7000                 1.3380                 3.3063
 Raman Activ --     0.0000                 0.0000                 0.0000
 Depolar     --     0.0000                 0.0000                 0.0000
 Atom AN      X      Y      Z        X      Y      Z        X      Y      Z
   1   6     0.06  -0.13  -0.01    -0.12   0.04  -0.03     0.07   0.03  -0.08
   2   6     0.10  -0.18  -0.03    -0.17   0.08  -0.07     0.08   0.06   0.10
   3   8     0.10  -0.18  -0.02    -0.23   0.01  -0.14     0.21   0.22   0.20
   4  15     0.16  -0.06  -0.04    -0.16   0.01  -0.10     0.05   0.09   0.16
   5  16     0.46   0.07  -0.16     0.06   0.05   0.13    -0.06  -0.00   0.37
   6   8    -0.02   0.08  -0.02    -0.22   0.10  -0.05     0.06   0.07  -0.12
   7   6    -0.01   0.14  -0.00    -0.14   0.12   0.02    -0.06   0.01  -0.24
   8   6     0.00   0.16  -0.02    -0.15   0.12   0.07    -0.01  -0.02  -0.38
   9  16    -0.03  -0.21   0.05    -0.07  -0.23  -0.33    -0.10  -0.05   0.20
  10   6    -0.04  -0.16   0.15    -0.02  -0.20  -0.07     0.03  -0.04   0.04
  11  16    -0.16  -0.04   0.34    -0.00  -0.17   0.01    -0.12  -0.13  -0.10
  12  15    -0.11   0.06   0.02     0.19  -0.00   0.08    -0.04  -0.06  -0.08
  13  16     0.15  -0.04  -0.13     0.34   0.16   0.14     0.15   0.14  -0.01
  14   8    -0.12   0.08   0.02     0.18  -0.09   0.09    -0.04  -0.15   0.03
  15   6    -0.13   0.07   0.00     0.13  -0.08   0.15     0.04  -0.13   0.09
  16   6    -0.13   0.05   0.00     0.10  -0.12   0.11     0.07  -0.09   0.11
  17   8    -0.19   0.15  -0.04     0.06   0.06   0.01    -0.10  -0.02  -0.15
  18   6    -0.14   0.12  -0.06     0.03   0.08  -0.01    -0.10   0.02  -0.18
  19   6    -0.13   0.12  -0.09     0.05   0.13  -0.02    -0.09   0.06  -0.14
  20   1     0.03  -0.02   0.01    -0.04  -0.00  -0.01     0.02   0.01  -0.03
  21   1     0.00  -0.04  -0.00    -0.02  -0.00   0.00     0.04   0.03  -0.04
  22   1     0.02  -0.04  -0.00    -0.03   0.03  -0.00     0.00  -0.02  -0.03
  23   1     0.02  -0.06  -0.02    -0.04   0.04  -0.01     0.03   0.02   0.03
  24   1     0.05  -0.06  -0.01    -0.06   0.04  -0.03     0.01  -0.01   0.05
  25   1     0.00   0.05  -0.01    -0.02   0.04  -0.00    -0.05   0.00  -0.06
  26   1    -0.01   0.04   0.01    -0.04   0.03   0.01    -0.01   0.00  -0.07
  27   1     0.01   0.05  -0.02    -0.04   0.03   0.02    -0.01  -0.00  -0.11
  28   1    -0.00   0.06  -0.00    -0.04   0.04   0.03    -0.02  -0.01  -0.13
  29   1    -0.00   0.04  -0.00    -0.06   0.03   0.03     0.03  -0.01  -0.12
  30   1    -0.01  -0.06   0.07    -0.00  -0.06  -0.01     0.02  -0.01   0.03
  31   1    -0.01  -0.06   0.03    -0.01  -0.08  -0.03     0.03  -0.01  -0.00
  32   1    -0.04   0.02   0.00     0.03  -0.03   0.06     0.02  -0.06   0.03
  33   1    -0.04   0.02   0.00     0.05  -0.01   0.05     0.02  -0.03   0.03
  34   1    -0.04   0.01   0.00     0.02  -0.04   0.04     0.03  -0.03   0.04
  35   1    -0.04   0.01   0.00     0.04  -0.03   0.02     0.01  -0.01   0.03
  36   1    -0.04   0.01   0.00     0.02  -0.04   0.03     0.02  -0.03   0.03
  37   1    -0.03   0.04  -0.01     0.01   0.02  -0.00    -0.03   0.02  -0.06
  38   1    -0.05   0.03  -0.02    -0.00   0.02  -0.01    -0.03  -0.01  -0.06
  39   1    -0.03   0.04  -0.02     0.02   0.04  -0.00    -0.02   0.03  -0.03
  40   1    -0.03   0.03  -0.03     0.01   0.04  -0.01    -0.03   0.02  -0.05
  41   1    -0.04   0.03  -0.03     0.01   0.04  -0.01    -0.02   0.01  -0.03
                      4                      5                      6
                        a                      a                      a 
 Frequencies --    54.4694                56.6975                68.7783
 Red. masses --    16.6278                17.3848                21.3254
 Frc consts  --     0.0000                 0.0000                 0.0000
 IR Inten    --     1.1460                 2.7931                 2.8550
 Raman Activ --     0.0000                 0.0000                 0.0000
 Depolar     --     0.0000                 0.0000                 0.0000
 Atom AN      X      Y      Z        X      Y      Z        X      Y      Z
   1   6    -0.06  -0.16  -0.06     0.06   0.03   0.08     0.09  -0.01   0.11
   2   6    -0.05  -0.15   0.04     0.08  -0.00   0.02     0.06   0.01   0.04
   3   8    -0.02  -0.07   0.11     0.01   0.00   0.04     0.01  -0.08  -0.00
   4  15    -0.01  -0.00   0.15    -0.05   0.13  -0.01     0.05  -0.13   0.02
   5  16     0.11   0.05   0.12     0.06   0.23  -0.23     0.17  -0.11   0.14
   6   8    -0.07   0.05   0.14    -0.07   0.13  -0.03    -0.02  -0.03   0.01
   7   6    -0.13   0.14   0.06     0.04  -0.02   0.07    -0.03   0.05   0.02
   8   6    -0.08   0.10  -0.09    -0.04  -0.07   0.21     0.03   0.23   0.07
   9  16     0.02  -0.01   0.11    -0.30   0.06   0.18     0.04  -0.18  -0.00
  10   6     0.06   0.01  -0.04    -0.03  -0.02   0.03    -0.03  -0.06  -0.06
  11  16    -0.04  -0.08  -0.24    -0.08  -0.19  -0.08    -0.33  -0.02  -0.26
  12  15     0.07  -0.01  -0.17    -0.04  -0.15   0.02    -0.13   0.14  -0.09
  13  16    -0.16  -0.17  -0.21    -0.01  -0.12   0.03    -0.21   0.38   0.09
  14   8     0.25   0.04  -0.26    -0.05  -0.14   0.05     0.01   0.02  -0.06
  15   6     0.08   0.02  -0.15     0.29  -0.11  -0.09     0.13   0.02  -0.04
  16   6     0.10  -0.12   0.01     0.39   0.23  -0.14     0.16   0.11  -0.04
  17   8     0.10   0.09   0.06    -0.04  -0.10   0.00    -0.06   0.11  -0.01
  18   6    -0.06   0.13   0.17    -0.10   0.00  -0.05     0.10  -0.12   0.12
  19   6    -0.09   0.21   0.36    -0.04   0.12  -0.06     0.05  -0.35  -0.05
  20   1    -0.02  -0.04  -0.01     0.02   0.02   0.04     0.02  -0.01   0.04
  21   1    -0.01  -0.03  -0.03    -0.00   0.01   0.02     0.02  -0.01   0.04
  22   1    -0.02  -0.06  -0.03     0.03   0.01   0.02     0.04   0.01   0.04
  23   1    -0.01  -0.04   0.01     0.02  -0.01  -0.02     0.02   0.01   0.01
  24   1    -0.02  -0.06   0.03     0.04  -0.00   0.01     0.02   0.02  -0.00
  25   1    -0.06   0.07   0.01     0.03  -0.02   0.02     0.01  -0.01   0.01
  26   1    -0.04   0.05   0.05     0.04  -0.01   0.00    -0.04   0.01  -0.01
  27   1    -0.02   0.03  -0.05    -0.03  -0.02   0.07     0.05   0.07   0.04
  28   1    -0.04   0.05  -0.04     0.01  -0.04   0.08     0.01   0.08   0.02
  29   1    -0.00   0.01  -0.02    -0.03  -0.01   0.06    -0.01   0.09   0.01
  30   1     0.02   0.01  -0.01     0.01   0.01   0.02    -0.01  -0.03   0.00
  31   1     0.03   0.01  -0.02     0.00  -0.01  -0.00     0.02  -0.00  -0.03
  32   1     0.03   0.02  -0.06     0.10  -0.07  -0.03     0.04  -0.02  -0.01
  33   1    -0.02   0.02  -0.04     0.11  -0.06  -0.04     0.04   0.00  -0.01
  34   1     0.01  -0.04   0.02     0.18   0.07  -0.07     0.06   0.03  -0.02
  35   1     0.02  -0.04   0.02     0.10   0.10  -0.03     0.04   0.04  -0.01
  36   1     0.07  -0.05  -0.00     0.08   0.10  -0.03     0.04   0.04  -0.01
  37   1    -0.06   0.03   0.03    -0.03  -0.01  -0.01     0.06  -0.06   0.07
  38   1     0.00   0.04   0.05    -0.05  -0.00  -0.02     0.04  -0.00   0.07
  39   1    -0.04   0.06   0.10     0.01   0.03  -0.01     0.00  -0.13  -0.04
  40   1    -0.05   0.07   0.12    -0.03   0.05  -0.02     0.05  -0.14   0.01
  41   1     0.01   0.06   0.12    -0.00   0.04  -0.02    -0.02  -0.08  -0.04
                      7                      8                      9
                        a                      a                      a 
 Frequencies --    65.5081                63.1460                69.8901
 Red. masses --    19.1030                14.6151                13.5747
 Frc consts  --     0.0000                 0.0000                 0.0000
 IR Inten    --     0.2595                 4.5044                 4.3161
 Raman Activ --     0.0000                 0.0000                 0.0000
 Depolar     --     0.0000                 0.0000                 0.0000
 Atom AN      X      Y      Z        X      Y      Z        X      Y      Z
   1   6     0.08  -0.19   0.06    -0.37  -0.06  -0.29     0.04   0.15   0.33
   2   6     0.02  -0.14   0.05    -0.24  -0.17  -0.07     0.04   0.10   0.04
   3   8    -0.07  -0.12   0.10     0.00  -0.01  -0.01    -0.12  -0.13  -0.08
   4  15    -0.18  -0.06   0.08     0.09  -0.01   0.03    -0.01  -0.15  -0.02
   5  16    -0.30  -0.05  -0.16     0.19   0.00   0.17    -0.08  -0.18  -0.03
   6   8    -0.10  -0.08   0.09     0.02   0.04   0.04     0.02  -0.15   0.13
   7   6    -0.22   0.08  -0.04    -0.06   0.10  -0.03    -0.10   0.12   0.04
   8   6    -0.12   0.11  -0.25    -0.03  -0.00  -0.21     0.03   0.29  -0.12
   9  16    -0.17   0.08   0.17     0.19   0.00  -0.07     0.20   0.02  -0.09
  10   6    -0.01   0.02   0.06     0.01   0.03  -0.00     0.01   0.06  -0.05
  11  16     0.09   0.01   0.15     0.10   0.09   0.08     0.15   0.08   0.01
  12  15     0.14   0.08   0.03    -0.05  -0.04   0.13    -0.05  -0.07  -0.04
  13  16     0.34  -0.02  -0.10    -0.17  -0.05   0.17    -0.02  -0.11  -0.07
  14   8     0.04   0.11   0.02    -0.16   0.01   0.13    -0.19  -0.05   0.05
  15   6     0.07   0.10  -0.07     0.09   0.02  -0.05     0.03  -0.04   0.01
  16   6     0.05   0.16  -0.15     0.16   0.28  -0.11     0.19   0.13   0.22
  17   8     0.05   0.11  -0.00     0.03  -0.15   0.07    -0.02  -0.14  -0.11
  18   6     0.17  -0.04   0.04     0.03  -0.08  -0.04    -0.09   0.01  -0.21
  19   6     0.15  -0.18  -0.10     0.06  -0.04  -0.05    -0.13   0.13   0.05
  20   1     0.02  -0.07   0.03    -0.09   0.01  -0.11     0.01   0.05   0.11
  21   1     0.02  -0.05   0.01    -0.10  -0.00  -0.10    -0.03   0.02   0.12
  22   1     0.04  -0.06   0.01    -0.16  -0.04  -0.09     0.04   0.08   0.11
  23   1     0.01  -0.03  -0.00    -0.08  -0.08  -0.00     0.01   0.02   0.00
  24   1     0.01  -0.05   0.02    -0.07  -0.07   0.00     0.05   0.07  -0.02
  25   1    -0.09   0.04  -0.01    -0.04   0.06  -0.02    -0.03   0.05   0.01
  26   1    -0.09   0.03   0.01    -0.01   0.03   0.02    -0.08   0.04   0.03
  27   1    -0.02   0.03  -0.09    -0.02  -0.00  -0.09     0.06   0.08  -0.05
  28   1    -0.07   0.06  -0.10    -0.02   0.01  -0.08    -0.02   0.13  -0.05
  29   1    -0.01   0.02  -0.07     0.02  -0.03  -0.06     0.02   0.08  -0.03
  30   1     0.01   0.02   0.02    -0.01   0.00  -0.02    -0.01   0.01  -0.04
  31   1    -0.01  -0.00   0.02    -0.01   0.02   0.01    -0.01   0.03   0.00
  32   1     0.01   0.03  -0.01     0.04  -0.01  -0.02     0.05  -0.03  -0.04
  33   1     0.03   0.01  -0.03     0.05  -0.03  -0.03    -0.03  -0.02  -0.01
  34   1     0.02   0.05  -0.06     0.09   0.08  -0.06     0.10   0.04   0.06
  35   1     0.02   0.04  -0.05     0.04   0.10  -0.03     0.01   0.07   0.11
  36   1     0.00   0.06  -0.04     0.02   0.11  -0.02     0.08   0.05   0.07
  37   1     0.07  -0.02   0.03     0.02  -0.01  -0.01    -0.05   0.05  -0.10
  38   1     0.05   0.01   0.03    -0.00  -0.03  -0.02    -0.01  -0.04  -0.10
  39   1     0.04  -0.07  -0.04     0.03  -0.00  -0.01    -0.06   0.07   0.04
  40   1     0.07  -0.08  -0.02     0.02  -0.00  -0.03    -0.06   0.06   0.00
  41   1     0.02  -0.04  -0.05     0.01  -0.02  -0.02    -0.00   0.00   0.06
                     10                     11                     12
                        a                      a                      a 
 Frequencies --    64.8834                69.9240                70.8031
 Red. masses --    13.2154                12.6013                12.4469
 Frc consts  --     0.0000                 0.0000                 0.0000
 IR Inten    --     0.1448                 4.3506                 1.1107
 Raman Activ --     0.0000                 0.0000                 0.0000
 Depolar     --     0.0000                 0.0000                 0.0000
 Atom AN      X      Y      Z        X      Y      Z        X      Y      Z
   1   6     0.28  -0.28  -0.23     0.30  -0.26  -0.20     0.30  -0.10   0.20
   2   6     0.01   0.07  -0.05     0.06   0.04  -0.01     0.09   0.09   0.03
   3   8    -0.09   0.09  -0.03     0.01   0.06   0.00    -0.17  -0.10  -0.05
   4  15    -0.07   0.08  -0.01    -0.03  -0.05  -0.01    -0.03   0.01   0.03
   5  16    -0.06   0.05   0.19    -0.19  -0.15   0.16     0.22   0.09   0.10
   6   8    -0.06   0.06  -0.00     0.02  -0.08  -0.03    -0.10   0.07   0.13
   7   6     0.03  -0.02   0.07     0.01   0.01  -0.02    -0.10   0.08   0.10
   8   6    -0.05  -0.16   0.11     0.10   0.34   0.12    -0.18  -0.38  -0.19
   9  16     0.04  -0.02  -0.18     0.04  -0.03  -0.06     0.12  -0.01  -0.10
  10   6    -0.02  -0.04   0.02    -0.03   0.00  -0.03     0.02   0.02  -0.06
  11  16     0.02   0.09   0.17     0.02  -0.01   0.01     0.04   0.05  -0.08
  12  15    -0.06   0.05  -0.06    -0.00  -0.05   0.11    -0.01   0.00   0.02
  13  16    -0.04  -0.13  -0.19    -0.16  -0.05   0.16    -0.09   0.14   0.13
  14   8    -0.11   0.09  -0.05     0.02  -0.02   0.06    -0.05  -0.03   0.05
  15   6     0.01   0.08  -0.03     0.02  -0.01  -0.03    -0.03  -0.02  -0.00
  16   6     0.22   0.13   0.37    -0.08   0.04  -0.28    -0.13   0.03  -0.25
  17   8    -0.06   0.05  -0.05     0.04  -0.08   0.09     0.03  -0.09  -0.02
  18   6     0.03  -0.04  -0.03    -0.06   0.09  -0.05    -0.01  -0.01  -0.07
  19   6    -0.03  -0.15  -0.00     0.04   0.29  -0.09    -0.02   0.06   0.02
  20   1     0.04  -0.16  -0.07     0.05  -0.15  -0.08     0.06  -0.08   0.07
  21   1     0.16  -0.06  -0.08     0.17  -0.06  -0.07     0.10  -0.04   0.07
  22   1     0.10  -0.09  -0.07     0.10  -0.09  -0.07     0.14  -0.01   0.06
  23   1     0.05   0.10   0.01     0.06   0.09   0.03     0.05   0.08   0.01
  24   1    -0.08   0.01  -0.00    -0.07   0.00   0.01     0.00   0.05  -0.01
  25   1     0.01   0.01   0.01     0.04  -0.06   0.01    -0.08   0.13  -0.01
  26   1     0.04  -0.01   0.03    -0.06  -0.00  -0.05     0.04   0.03   0.12
  27   1    -0.04  -0.05   0.02     0.09   0.10   0.08    -0.12  -0.11  -0.14
  28   1     0.00  -0.06   0.04     0.02   0.11   0.04    -0.06  -0.11  -0.06
  29   1    -0.02  -0.06   0.04    -0.01   0.15   0.02     0.01  -0.20  -0.03
  30   1    -0.01  -0.02   0.01    -0.02  -0.00  -0.02    -0.00  -0.00  -0.02
  31   1    -0.01  -0.02   0.01    -0.02   0.01   0.00     0.01   0.01  -0.01
  32   1     0.06   0.01  -0.08    -0.02   0.00   0.03    -0.04  -0.01   0.04
  33   1    -0.08   0.02  -0.02     0.06  -0.02  -0.01     0.05  -0.01   0.00
  34   1     0.09   0.04   0.12    -0.02   0.01  -0.09    -0.04   0.01  -0.08
  35   1     0.01   0.06   0.18     0.01   0.01  -0.12    -0.01   0.01  -0.11
  36   1     0.14   0.03   0.11    -0.07   0.03  -0.08    -0.09   0.02  -0.08
  37   1     0.02   0.00  -0.01    -0.02   0.03  -0.01    -0.01   0.01  -0.04
  38   1     0.03  -0.02  -0.01    -0.06   0.02  -0.03    -0.00  -0.02  -0.04
  39   1    -0.03  -0.04   0.00     0.05   0.09  -0.01    -0.01   0.03   0.02
  40   1     0.01  -0.06  -0.00    -0.01   0.11  -0.05    -0.02   0.03   0.00
  41   1    -0.02  -0.06   0.00     0.02   0.09  -0.03     0.01   0.01   0.02
                     13                     14                     15
                        a                      a                      a 
 Frequencies --    75.6552               108.4717               120.8351
 Red. masses --    12.2026                13.0558                15.4809
 Frc consts  --     0.0000                 0.0000                 0.0000
 IR Inten    --     1.6909                 2.7194                15.6683
 Raman Activ --     0.0000                 0.0000                 0.0000
 Depolar     --     0.0000                 0.0000                 0.0000
 Atom AN      X      Y      Z        X      Y      Z        X      Y      Z
   1   6    -0.00   0.07   0.14    -0.02  -0.03   0.13     0.03  -0.10   0.03
   2   6     0.04   0.01   0.03     0.10  -0.17   0.01    -0.14   0.09   0.05
   3   8    -0.01  -0.04   0.01     0.04  -0.08   0.10    -0.17  -0.08  -0.06
   4  15    -0.00  -0.02   0.01    -0.12  -0.04   0.02    -0.06  -0.06   0.02
   5  16     0.04  -0.00  -0.00     0.17   0.04   0.16     0.35   0.08   0.06
   6   8    -0.03   0.01   0.01    -0.16   0.07  -0.20    -0.02  -0.06  -0.02
   7   6    -0.05   0.05  -0.01    -0.10  -0.25  -0.20    -0.10  -0.30  -0.17
   8   6    -0.05  -0.05  -0.10    -0.11   0.01   0.10    -0.00   0.04  -0.04
   9  16    -0.01  -0.03   0.01    -0.16  -0.04   0.03     0.01   0.16   0.09
  10   6    -0.02  -0.01   0.01     0.00  -0.03  -0.07    -0.02   0.17  -0.08
  11  16    -0.03  -0.01   0.02     0.09   0.04  -0.00     0.06   0.07  -0.20
  12  15    -0.01  -0.00   0.04     0.13   0.09   0.00    -0.04  -0.06   0.00
  13  16    -0.33  -0.17   0.03    -0.19   0.03   0.07     0.27  -0.02  -0.07
  14   8     0.15   0.06  -0.10     0.00   0.14  -0.00    -0.17  -0.02   0.07
  15   6    -0.01   0.05  -0.04    -0.08   0.13  -0.04    -0.09  -0.02   0.00
  16   6     0.05  -0.11   0.21    -0.05   0.07   0.06    -0.03   0.06   0.07
  17   8     0.06   0.02   0.14     0.17  -0.10  -0.05     0.01  -0.05   0.04
  18   6     0.03   0.06   0.07     0.21   0.03  -0.31    -0.14  -0.05   0.27
  19   6     0.30   0.20  -0.51     0.09   0.04   0.07     0.02   0.07  -0.03
  20   1     0.01   0.03   0.05     0.01   0.03   0.08    -0.02  -0.08  -0.02
  21   1    -0.02   0.01   0.05    -0.07  -0.00   0.03     0.06  -0.04   0.02
  22   1     0.01   0.03   0.04     0.01  -0.02   0.03     0.01  -0.00   0.02
  23   1     0.00  -0.01  -0.00     0.00  -0.09  -0.05    -0.01   0.07   0.06
  24   1     0.04   0.01  -0.00     0.09  -0.07   0.01    -0.10   0.05  -0.01
  25   1    -0.03   0.04  -0.01    -0.01  -0.18  -0.01    -0.03  -0.21   0.01
  26   1    -0.00   0.02   0.03    -0.04  -0.09  -0.18    -0.06  -0.10  -0.18
  27   1    -0.03  -0.02  -0.05    -0.02   0.01   0.13     0.04   0.02   0.10
  28   1    -0.02  -0.01  -0.03    -0.02  -0.05   0.03    -0.02  -0.03  -0.05
  29   1     0.00  -0.04  -0.02    -0.07   0.10  -0.01    -0.00   0.12  -0.06
  30   1    -0.01  -0.00  -0.00     0.01  -0.00  -0.02    -0.01   0.06  -0.05
  31   1    -0.01   0.00   0.00    -0.00  -0.02  -0.02    -0.02   0.07  -0.01
  32   1     0.02   0.03  -0.05    -0.01   0.06  -0.04    -0.01  -0.00  -0.02
  33   1    -0.07   0.03  -0.01    -0.06   0.03  -0.02    -0.04  -0.02  -0.01
  34   1    -0.01  -0.03   0.07    -0.03   0.02   0.01     0.01   0.02   0.01
  35   1    -0.01  -0.05   0.10    -0.03   0.01   0.04    -0.03   0.02   0.04
  36   1     0.08  -0.05   0.06     0.02   0.02   0.02     0.01   0.03   0.03
  37   1     0.06  -0.07   0.10     0.05   0.12  -0.16    -0.04  -0.12   0.13
  38   1    -0.10   0.08   0.06     0.11  -0.08  -0.17    -0.10   0.07   0.14
  39   1     0.19  -0.00  -0.18    -0.02   0.09   0.08     0.07  -0.05  -0.07
  40   1     0.08   0.06  -0.16     0.03   0.03  -0.03    -0.03   0.03   0.04
  41   1     0.03   0.13  -0.23     0.05  -0.08   0.08     0.01   0.12  -0.06
                     16                     17                     18
                        a                      a                      a 
 Frequencies --   125.9361               141.2309               154.5733
 Red. masses --    14.5357                16.4777                21.1514
 Frc consts  --     0.0000                 0.0000                 0.0000
 IR Inten    --     3.8692                 5.2014                10.8691
 Raman Activ --     0.0000                 0.0000                 0.0000
 Depolar     --     0.0000                 0.0000                 0.0000
 Atom AN      X      Y      Z        X      Y      Z        X      Y      Z
   1   6    -0.02  -0.03  -0.06    -0.01  -0.04   0.09     0.01   0.05  -0.02
   2   6    -0.29   0.31   0.16     0.04  -0.13  -0.04    -0.03   0.09  -0.07
   3   8    -0.15   0.04  -0.05    -0.07  -0.05   0.03    -0.05  -0.06  -0.17
   4  15     0.02  -0.05   0.08    -0.08   0.07   0.03     0.04  -0.11  -0.16
   5  16     0.16   0.09  -0.32     0.02   0.11   0.08     0.17  -0.16   0.23
   6   8     0.10  -0.13   0.13    -0.03   0.03   0.00     0.00  -0.06  -0.08
   7   6    -0.03  -0.14  -0.03    -0.08  -0.17  -0.10     0.07   0.09   0.03
   8   6     0.08   0.01  -0.13    -0.03   0.03  -0.01     0.03  -0.02  -0.01
   9  16    -0.05  -0.05   0.16     0.19   0.15  -0.16    -0.20   0.14   0.19
  10   6     0.05  -0.08   0.13    -0.04   0.09   0.06    -0.17   0.18  -0.05
  11  16    -0.04  -0.07   0.16     0.17   0.19   0.30    -0.17   0.03  -0.17
  12  15     0.05   0.04  -0.01    -0.08   0.02  -0.06     0.02   0.12   0.15
  13  16    -0.20   0.05   0.07    -0.18  -0.04  -0.08     0.04  -0.39  -0.18
  14   8     0.16   0.01  -0.07     0.21  -0.15  -0.08     0.08   0.03   0.11
  15   6     0.07   0.01  -0.02     0.26  -0.15   0.18     0.11   0.02   0.24
  16   6     0.05  -0.08  -0.01     0.11  -0.18  -0.13    -0.02   0.01  -0.02
  17   8    -0.01   0.05  -0.04    -0.18   0.17  -0.06    -0.05   0.15   0.08
  18   6     0.10   0.06  -0.21    -0.09   0.04   0.01     0.13   0.09  -0.11
  19   6    -0.02  -0.04   0.00    -0.14  -0.12  -0.08     0.03  -0.07  -0.01
  20   1    -0.05  -0.10  -0.12     0.01   0.01   0.07    -0.00   0.00  -0.02
  21   1     0.13  -0.03   0.01    -0.06  -0.01   0.02     0.02   0.00   0.01
  22   1    -0.05   0.04   0.01     0.03  -0.02   0.02     0.01   0.03   0.00
  23   1    -0.03   0.18   0.17    -0.00  -0.06  -0.06    -0.00   0.04  -0.00
  24   1    -0.24   0.14   0.01     0.07  -0.05  -0.00    -0.02   0.04  -0.04
  25   1    -0.03  -0.08   0.02    -0.03  -0.13   0.01     0.03   0.08  -0.02
  26   1    -0.03  -0.04  -0.05    -0.04  -0.06  -0.12     0.03   0.03   0.07
  27   1     0.05   0.01  -0.00     0.01   0.01   0.08     0.01  -0.01  -0.06
  28   1    -0.01   0.00  -0.07    -0.02  -0.03  -0.03     0.02   0.03   0.02
  29   1     0.05   0.04  -0.06    -0.01   0.08  -0.04    -0.00  -0.06   0.03
  30   1     0.03  -0.02   0.06    -0.03   0.02  -0.01    -0.06   0.06  -0.06
  31   1     0.03  -0.04   0.02    -0.04   0.03   0.04    -0.07   0.09   0.01
  32   1     0.02   0.01  -0.01     0.03  -0.10   0.14    -0.01  -0.03   0.14
  33   1     0.01   0.01  -0.00     0.17   0.00   0.08     0.11   0.03   0.09
  34   1    -0.01  -0.02   0.00     0.03  -0.06   0.02     0.00  -0.00   0.03
  35   1     0.02  -0.04  -0.00     0.08  -0.01  -0.12     0.04   0.04  -0.07
  36   1     0.02  -0.03  -0.00    -0.06  -0.10  -0.07    -0.08  -0.03  -0.03
  37   1     0.03   0.09  -0.10    -0.01   0.00   0.02     0.06   0.10  -0.06
  38   1     0.07  -0.04  -0.11    -0.02   0.03   0.02     0.08  -0.03  -0.08
  39   1    -0.05   0.04   0.04    -0.06  -0.05  -0.04    -0.03   0.03   0.04
  40   1     0.02  -0.01  -0.03    -0.02  -0.07  -0.00     0.05  -0.03  -0.05
  41   1    -0.01  -0.08   0.04    -0.06  -0.02  -0.04    -0.02  -0.09   0.02
                     19                     20                     21
                        a                      a                      a 
 Frequencies --   168.1153               176.7388               185.8049
 Red. masses --    20.9323                18.6276                14.9042
 Frc consts  --     0.0000                 0.0000                 0.0000
 IR Inten    --    16.1937                 4.5115                13.5652
 Raman Activ --     0.0000                 0.0000                 0.0000
 Depolar     --     0.0000                 0.0000                 0.0000
 Atom AN      X      Y      Z        X      Y      Z        X      Y      Z
   1   6     0.00   0.00  -0.01     0.01  -0.02   0.04    -0.00   0.04  -0.04
   2   6    -0.01  -0.01  -0.15     0.04  -0.06  -0.02    -0.02   0.12   0.25
   3   8    -0.11  -0.11  -0.20    -0.05   0.03   0.05     0.30   0.07   0.18
   4  15     0.01  -0.05  -0.20    -0.00   0.12   0.10     0.03  -0.23   0.05
   5  16     0.09  -0.14   0.28    -0.04   0.16  -0.03     0.06  -0.18  -0.18
   6   8     0.02  -0.06  -0.07     0.07   0.01   0.14    -0.23   0.12  -0.24
   7   6     0.07   0.07   0.02    -0.01  -0.10   0.01    -0.11   0.12  -0.06
   8   6     0.05  -0.00   0.00     0.05  -0.00  -0.04    -0.26  -0.03   0.15
   9  16    -0.24   0.24   0.19     0.26   0.02  -0.18     0.18  -0.06   0.04
  10   6    -0.09   0.13   0.09    -0.12   0.09  -0.04    -0.19   0.17  -0.12
  11  16     0.17  -0.03   0.24    -0.24  -0.08  -0.21     0.16   0.12   0.02
  12  15     0.01  -0.13  -0.03    -0.06  -0.06   0.29    -0.01  -0.04   0.04
  13  16     0.04   0.25   0.20     0.21  -0.18   0.17     0.05  -0.01   0.05
  14   8     0.15  -0.02  -0.15     0.16   0.02   0.06     0.08  -0.02  -0.02
  15   6    -0.03  -0.02  -0.34    -0.05   0.04  -0.24     0.02  -0.01  -0.08
  16   6     0.07  -0.13  -0.04     0.02  -0.07  -0.02     0.04  -0.05  -0.02
  17   8    -0.07  -0.00  -0.04    -0.20   0.12   0.15    -0.08   0.05  -0.00
  18   6    -0.08  -0.01  -0.03     0.01   0.08  -0.13    -0.05   0.01  -0.01
  19   6    -0.09  -0.03  -0.02    -0.09  -0.09  -0.07    -0.08  -0.05  -0.03
  20   1     0.00   0.00  -0.00     0.01   0.01   0.07    -0.01  -0.01  -0.12
  21   1    -0.01  -0.02   0.01    -0.04   0.02  -0.01     0.10  -0.01   0.01
  22   1     0.01   0.02   0.01     0.04  -0.03  -0.01    -0.09   0.04   0.02
  23   1    -0.00  -0.01  -0.05     0.00  -0.03  -0.05     0.01   0.06   0.16
  24   1     0.02   0.01  -0.05     0.05  -0.03   0.01    -0.10   0.05   0.06
  25   1     0.03   0.06  -0.02    -0.03  -0.07   0.03    -0.00   0.06  -0.04
  26   1     0.02   0.02   0.05    -0.01  -0.03  -0.05    -0.01   0.04   0.02
  27   1     0.02  -0.00  -0.04     0.02   0.00   0.04    -0.11  -0.01   0.01
  28   1     0.02   0.03   0.02    -0.01  -0.03  -0.05    -0.02  -0.01   0.11
  29   1     0.00  -0.04   0.02     0.05   0.05  -0.04    -0.13  -0.04   0.07
  30   1    -0.02   0.06  -0.01    -0.07   0.01  -0.05    -0.10   0.05  -0.14
  31   1    -0.06   0.03   0.05    -0.04   0.07   0.01    -0.11   0.12   0.03
  32   1     0.03   0.06  -0.18     0.02   0.09  -0.15     0.02   0.02  -0.05
  33   1    -0.11  -0.04  -0.13    -0.11  -0.05  -0.11    -0.02  -0.02  -0.03
  34   1    -0.03  -0.03  -0.08    -0.06  -0.00  -0.12    -0.01  -0.01  -0.04
  35   1    -0.02  -0.12   0.07    -0.03  -0.15   0.09     0.00  -0.05   0.02
  36   1     0.13   0.01   0.03     0.12   0.07   0.05     0.04   0.01   0.01
  37   1    -0.02  -0.00  -0.01     0.04   0.11  -0.06    -0.01   0.01   0.00
  38   1    -0.02  -0.00  -0.00     0.03  -0.04  -0.09    -0.01   0.00  -0.00
  39   1    -0.03  -0.01  -0.01    -0.05   0.05   0.05    -0.03  -0.01  -0.01
  40   1    -0.02  -0.01  -0.00     0.04  -0.04  -0.11    -0.01  -0.03  -0.01
  41   1    -0.03  -0.01  -0.00    -0.09  -0.13   0.01    -0.04  -0.02  -0.01
                     22                     23                     24
                        a                      a                      a 
 Frequencies --   227.0945               230.0384               218.4886
 Red. masses --    16.7762                16.2531                 7.0284
 Frc consts  --     0.0000                 0.0000                 0.0000
 IR Inten    --    30.2860                15.1722                 2.4045
 Raman Activ --     0.0000                 0.0000                 0.0000
 Depolar     --     0.0000                 0.0000                 0.0000
 Atom AN      X      Y      Z        X      Y      Z        X      Y      Z
   1   6     0.00   0.04  -0.02     0.03   0.11  -0.12     0.01   0.04  -0.06
   2   6     0.02   0.02   0.01     0.11   0.03   0.01     0.03   0.02  -0.02
   3   8     0.01   0.07   0.05     0.07   0.25   0.18     0.01   0.06   0.01
   4  15    -0.05  -0.01   0.03    -0.26  -0.09   0.09    -0.07  -0.06  -0.01
   5  16     0.06   0.05  -0.02     0.24   0.12  -0.02     0.06  -0.02  -0.01
   6   8     0.01  -0.06   0.06     0.06  -0.34   0.18    -0.03  -0.08   0.01
   7   6    -0.01  -0.03   0.04    -0.01  -0.09   0.15    -0.05  -0.02   0.01
   8   6     0.02   0.00  -0.01     0.12   0.01  -0.05    -0.04   0.00   0.01
   9  16     0.04  -0.02  -0.06    -0.22  -0.11  -0.14    -0.02   0.03   0.01
  10   6    -0.30   0.09   0.05    -0.21   0.00  -0.20     0.08  -0.03   0.05
  11  16    -0.26   0.13   0.21     0.20  -0.06   0.01    -0.12   0.22   0.07
  12  15    -0.28  -0.03  -0.08     0.12  -0.01  -0.02    -0.09   0.14  -0.03
  13  16     0.21   0.15  -0.16    -0.07   0.00   0.05    -0.02  -0.01  -0.18
  14   8     0.00  -0.02  -0.20    -0.00   0.03   0.02    -0.02  -0.12   0.12
  15   6     0.06  -0.04  -0.07    -0.02   0.03   0.01     0.09  -0.12   0.10
  16   6     0.05  -0.11  -0.04    -0.02   0.05   0.01     0.03  -0.10  -0.04
  17   8     0.14  -0.32   0.16    -0.02   0.09  -0.09     0.07  -0.08  -0.01
  18   6     0.12  -0.16  -0.01    -0.04   0.03   0.00     0.06  -0.04  -0.00
  19   6     0.23   0.12   0.10    -0.07  -0.04  -0.02     0.09   0.06   0.05
  20   1     0.00   0.02   0.03     0.03   0.07   0.09     0.01   0.02   0.03
  21   1    -0.02   0.04  -0.03    -0.07   0.13  -0.12    -0.02   0.05  -0.05
  22   1     0.02  -0.03  -0.03     0.05  -0.09  -0.11     0.02  -0.03  -0.04
  23   1     0.00  -0.00  -0.01     0.02  -0.01  -0.04     0.01   0.00  -0.02
  24   1     0.02  -0.01   0.01     0.07  -0.03   0.04     0.02  -0.00   0.00
  25   1    -0.01  -0.01   0.01    -0.00   0.00   0.03    -0.01  -0.00  -0.00
  26   1    -0.01  -0.01   0.01    -0.04  -0.02   0.08    -0.02  -0.00   0.01
  27   1     0.02  -0.00  -0.02     0.13  -0.02  -0.17     0.02  -0.01  -0.06
  28   1     0.00   0.03  -0.00     0.02   0.17   0.03     0.00   0.06   0.04
  29   1     0.00  -0.01   0.00    -0.02  -0.11   0.05    -0.05  -0.05   0.04
  30   1    -0.13   0.02  -0.06    -0.08   0.02  -0.14     0.04  -0.02   0.07
  31   1    -0.13   0.07   0.06    -0.12   0.04   0.00     0.06  -0.05  -0.02
  32   1     0.02  -0.04  -0.01    -0.01   0.01   0.00     0.02  -0.03   0.04
  33   1     0.03   0.01  -0.01    -0.01   0.01   0.00     0.04  -0.05   0.03
  34   1     0.05  -0.05   0.13     0.01   0.01   0.02    -0.19   0.03  -0.46
  35   1     0.03   0.08  -0.07    -0.01   0.03  -0.00     0.00  -0.45   0.17
  36   1    -0.03  -0.15  -0.07    -0.02   0.00  -0.00     0.19   0.34   0.19
  37   1     0.03  -0.02  -0.02    -0.01  -0.01   0.01     0.01  -0.02  -0.00
  38   1     0.02  -0.08  -0.04    -0.01   0.03   0.02     0.01  -0.01  -0.00
  39   1     0.12   0.14   0.14    -0.04  -0.07  -0.07     0.03  -0.01  -0.01
  40   1     0.06   0.11  -0.12    -0.04  -0.04   0.08    -0.02   0.03   0.05
  41   1     0.04  -0.07   0.08     0.01   0.06  -0.03     0.07   0.06   0.01
                     25                     26                     27
                        a                      a                      a 
 Frequencies --   233.4499               227.6689               231.6570
 Red. masses --     8.7140                 6.3257                 6.2947
 Frc consts  --     0.0000                 0.0000                 0.0000
 IR Inten    --     2.5426                 2.0668                 3.6013
 Raman Activ --     0.0000                 0.0000                 0.0000
 Depolar     --     0.0000                 0.0000                 0.0000
 Atom AN      X      Y      Z        X      Y      Z        X      Y      Z
   1   6     0.08   0.22  -0.25     0.02   0.07  -0.08    -0.00  -0.01   0.01
   2   6     0.15   0.13  -0.18     0.04   0.06  -0.04    -0.07   0.05  -0.03
   3   8    -0.01   0.14  -0.11    -0.01   0.08  -0.01    -0.09   0.02  -0.05
   4  15     0.06  -0.13  -0.03    -0.10  -0.10  -0.03     0.03  -0.01   0.02
   5  16     0.05  -0.17  -0.07     0.08  -0.06  -0.03    -0.02  -0.02  -0.04
   6   8    -0.09  -0.03   0.22    -0.07  -0.10  -0.04    -0.04   0.05  -0.10
   7   6    -0.21   0.02   0.11    -0.11  -0.07  -0.06    -0.03  -0.05  -0.11
   8   6    -0.21  -0.01   0.05    -0.12   0.00   0.04    -0.08   0.00   0.03
   9  16     0.07  -0.01   0.19     0.05   0.12   0.06     0.19   0.06   0.10
  10   6     0.05   0.02   0.07     0.35  -0.08   0.07     0.08   0.03   0.14
  11  16    -0.01  -0.04   0.01     0.08   0.07  -0.08    -0.19   0.02  -0.00
  12  15     0.02  -0.00   0.00    -0.09  -0.03   0.03    -0.03   0.02   0.11
  13  16    -0.01  -0.00   0.02     0.03  -0.00   0.03     0.06  -0.06   0.06
  14   8     0.01   0.01  -0.01    -0.02  -0.01  -0.01     0.09   0.05  -0.01
  15   6    -0.00   0.01  -0.00    -0.01  -0.01  -0.04     0.01   0.05  -0.07
  16   6    -0.00   0.00   0.01     0.01  -0.00  -0.00     0.02  -0.03  -0.01
  17   8     0.00  -0.00  -0.02    -0.07   0.05   0.11     0.01  -0.10  -0.01
  18   6     0.00  -0.00  -0.02    -0.07   0.03   0.12     0.03  -0.04  -0.15
  19   6    -0.00  -0.01  -0.00    -0.04  -0.02  -0.03    -0.01  -0.01   0.01
  20   1     0.04   0.11   0.09     0.01   0.04   0.09    -0.00  -0.00   0.22
  21   1    -0.08   0.18  -0.18    -0.06   0.10  -0.09    -0.11   0.12  -0.11
  22   1     0.09  -0.09  -0.16     0.06  -0.07  -0.08     0.14  -0.15  -0.10
  23   1     0.03   0.02  -0.09     0.01   0.01  -0.03    -0.01   0.02  -0.01
  24   1     0.08   0.02  -0.03     0.02   0.01  -0.00    -0.02   0.02  -0.01
  25   1    -0.08  -0.01   0.04    -0.02  -0.03  -0.02    -0.00  -0.03  -0.02
  26   1    -0.06   0.00   0.01    -0.04  -0.02  -0.02    -0.01  -0.02  -0.05
  27   1    -0.19   0.03   0.31     0.05  -0.02  -0.18     0.06  -0.02  -0.19
  28   1    -0.12  -0.30  -0.15     0.02   0.20   0.14     0.05   0.20   0.15
  29   1     0.12   0.22  -0.13    -0.18  -0.14   0.11    -0.18  -0.15   0.12
  30   1     0.02   0.01   0.02     0.15  -0.03   0.15     0.03  -0.01   0.07
  31   1     0.02   0.01   0.02     0.17  -0.10  -0.06     0.05  -0.00   0.01
  32   1    -0.00   0.00  -0.00     0.00  -0.00  -0.02     0.01   0.03  -0.03
  33   1    -0.00   0.00  -0.00    -0.01  -0.01  -0.01    -0.02   0.01  -0.03
  34   1     0.01  -0.00   0.04     0.04  -0.01   0.08     0.03  -0.02   0.12
  35   1     0.00   0.03  -0.01     0.00   0.07  -0.03     0.01   0.08  -0.05
  36   1    -0.01  -0.03  -0.01    -0.03  -0.06  -0.04    -0.03  -0.11  -0.05
  37   1    -0.00   0.00  -0.01    -0.01   0.00   0.04     0.00   0.02  -0.06
  38   1     0.00  -0.00  -0.00    -0.03   0.01   0.03     0.02  -0.04  -0.06
  39   1    -0.01  -0.03  -0.03     0.05   0.21   0.21    -0.07  -0.23  -0.23
  40   1    -0.02  -0.01   0.04     0.14   0.03  -0.33    -0.15  -0.04   0.33
  41   1     0.02   0.03  -0.01    -0.21  -0.28   0.03     0.19   0.27  -0.04
                     28                     29                     30
                        a                      a                      a 
 Frequencies --   244.9097               276.5720               310.3690
 Red. masses --     7.2723                15.4375                12.7880
 Frc consts  --     0.0000                 0.0000                 0.0000
 IR Inten    --     7.0643                 7.9716                14.5985
 Raman Activ --     0.0000                 0.0000                 0.0000
 Depolar     --     0.0000                 0.0000                 0.0000
 Atom AN      X      Y      Z        X      Y      Z        X      Y      Z
   1   6    -0.05  -0.13   0.12    -0.05  -0.09   0.10    -0.01  -0.01   0.02
   2   6    -0.21   0.06   0.07    -0.10  -0.00   0.18    -0.01  -0.01   0.04
   3   8    -0.10  -0.03  -0.04     0.14  -0.00   0.13     0.05   0.01   0.04
   4  15     0.13   0.03   0.06    -0.14  -0.07  -0.06    -0.05  -0.03  -0.02
   5  16    -0.07  -0.01  -0.04     0.09  -0.03   0.02     0.03  -0.01   0.00
   6   8     0.02   0.16  -0.16    -0.00  -0.11  -0.13    -0.01  -0.05  -0.03
   7   6     0.14   0.07  -0.06     0.13   0.13   0.07     0.00   0.02   0.01
   8   6     0.09  -0.00  -0.02     0.12   0.00  -0.03    -0.00   0.00   0.00
   9  16     0.03  -0.14   0.10    -0.26   0.05  -0.17     0.02   0.11  -0.08
  10   6    -0.14   0.04  -0.06     0.20  -0.10  -0.10     0.03   0.01   0.03
  11  16     0.12  -0.10   0.03     0.02   0.36  -0.06     0.02  -0.04   0.03
  12  15     0.08  -0.02  -0.10    -0.15   0.07   0.16    -0.03  -0.01  -0.08
  13  16    -0.07   0.05  -0.03     0.10  -0.07   0.03    -0.08   0.04  -0.07
  14   8    -0.07  -0.03   0.00     0.10   0.03   0.01    -0.33  -0.28   0.26
  15   6    -0.02  -0.03   0.06     0.05   0.03  -0.09    -0.09  -0.27  -0.21
  16   6    -0.02   0.04   0.00     0.05  -0.10  -0.03     0.04  -0.14  -0.05
  17   8     0.02   0.08  -0.05    -0.04  -0.12   0.08    -0.11   0.40   0.08
  18   6     0.00   0.02   0.07    -0.07  -0.04  -0.05     0.28   0.17   0.02
  19   6     0.02   0.01   0.00    -0.08  -0.03  -0.03     0.24   0.08   0.09
  20   1    -0.03  -0.06   0.45    -0.02  -0.04   0.15    -0.00  -0.00   0.02
  21   1    -0.21   0.19  -0.18    -0.06   0.05  -0.04    -0.01   0.01  -0.01
  22   1     0.27  -0.31  -0.15     0.07  -0.12  -0.03     0.01  -0.02  -0.00
  23   1    -0.04   0.04   0.06    -0.02   0.01   0.11    -0.00   0.00   0.02
  24   1    -0.10   0.03   0.01    -0.08   0.01   0.04    -0.01   0.00   0.01
  25   1     0.05   0.03  -0.03     0.06   0.11  -0.02     0.01   0.02  -0.01
  26   1     0.06   0.02  -0.01     0.04   0.05   0.10     0.00   0.01   0.02
  27   1    -0.01   0.01   0.03    -0.05   0.02   0.16    -0.01   0.00   0.02
  28   1     0.03  -0.05  -0.02    -0.02  -0.18  -0.13    -0.00  -0.02  -0.01
  29   1     0.05   0.03  -0.02     0.18   0.12  -0.10     0.01   0.01  -0.01
  30   1    -0.07   0.02  -0.11     0.10  -0.04   0.10     0.02   0.01   0.02
  31   1    -0.09   0.07   0.04     0.12  -0.12  -0.11     0.01  -0.02  -0.00
  32   1    -0.01  -0.02   0.03     0.02   0.03  -0.05     0.01  -0.03  -0.14
  33   1     0.01   0.00   0.02    -0.01  -0.01  -0.04    -0.09  -0.15  -0.10
  34   1    -0.02   0.02  -0.08     0.01  -0.04   0.08     0.08  -0.05   0.08
  35   1    -0.01  -0.05   0.03     0.02   0.02  -0.04    -0.01   0.06  -0.02
  36   1     0.01   0.09   0.04     0.01  -0.10  -0.05    -0.00  -0.12  -0.05
  37   1    -0.00  -0.02   0.03    -0.02   0.01  -0.02     0.12   0.11  -0.01
  38   1    -0.00   0.03   0.04    -0.02  -0.02  -0.03     0.12   0.01  -0.03
  39   1     0.03   0.09   0.09    -0.03  -0.05  -0.05     0.05  -0.01  -0.01
  40   1     0.06   0.02  -0.13    -0.04  -0.02   0.05     0.04   0.02   0.09
  41   1    -0.07  -0.10   0.02     0.01   0.04  -0.02     0.12   0.07   0.03
                     31                     32                     33
                        a                      a                      a 
 Frequencies --   325.4369               350.2759               354.0026
 Red. masses --    23.6449                19.5441                19.4236
 Frc consts  --     0.0000                 0.0000                 0.0000
 IR Inten    --     6.9378                 7.7365                 2.2944
 Raman Activ --     0.0000                 0.0000                 0.0000
 Depolar     --     0.0000                 0.0000                 0.0000
 Atom AN      X      Y      Z        X      Y      Z        X      Y      Z
   1   6     0.03   0.05  -0.06     0.01   0.01  -0.01     0.02  -0.00  -0.01
   2   6     0.04   0.01  -0.13     0.01  -0.00  -0.04     0.03  -0.04  -0.15
   3   8    -0.17  -0.03  -0.11    -0.09   0.02  -0.01    -0.31   0.21   0.07
   4  15     0.19   0.07   0.12    -0.05  -0.01   0.04    -0.38  -0.15   0.16
   5  16    -0.11   0.03  -0.02    -0.01   0.02  -0.02     0.06   0.10  -0.08
   6   8     0.02   0.18   0.10    -0.03   0.02  -0.06    -0.15  -0.09  -0.39
   7   6    -0.00  -0.06  -0.01     0.04   0.01  -0.00     0.18   0.11  -0.01
   8   6     0.03  -0.00  -0.02     0.04  -0.00  -0.01     0.17   0.01  -0.03
   9  16    -0.15  -0.45   0.27     0.00  -0.12   0.12     0.30  -0.11   0.26
  10   6    -0.01  -0.09  -0.26     0.10  -0.04  -0.10     0.03   0.03   0.09
  11  16     0.18   0.42  -0.04     0.32  -0.08  -0.09    -0.06   0.00  -0.00
  12  15    -0.07   0.14   0.10    -0.42  -0.24  -0.02     0.07   0.05   0.00
  13  16     0.02  -0.04  -0.04     0.10   0.10   0.03    -0.02  -0.02  -0.00
  14   8    -0.05  -0.05   0.16    -0.01   0.06  -0.35    -0.00  -0.01   0.07
  15   6     0.04  -0.06  -0.14    -0.01   0.03   0.14    -0.00  -0.00  -0.03
  16   6     0.06  -0.16  -0.05    -0.04   0.10   0.05     0.00  -0.02  -0.01
  17   8    -0.00  -0.00   0.02    -0.23   0.11   0.38     0.04  -0.02  -0.07
  18   6    -0.02   0.01   0.01     0.13   0.08  -0.07    -0.03  -0.01   0.01
  19   6    -0.03  -0.01  -0.01     0.09   0.02   0.01    -0.02  -0.00  -0.00
  20   1     0.01   0.02  -0.06     0.00   0.00  -0.02     0.01   0.00  -0.07
  21   1     0.02  -0.01   0.01     0.01  -0.01   0.01     0.03  -0.07   0.06
  22   1    -0.02   0.05   0.00    -0.01   0.02   0.00    -0.03   0.08   0.04
  23   1     0.01  -0.00  -0.08    -0.00  -0.00  -0.04    -0.01  -0.03  -0.16
  24   1     0.05  -0.00  -0.03     0.02  -0.01  -0.01     0.10  -0.06  -0.00
  25   1    -0.02  -0.06   0.03     0.02   0.01  -0.01     0.11   0.12  -0.06
  26   1     0.01  -0.03  -0.06     0.01   0.00   0.01     0.06   0.04   0.11
  27   1     0.05  -0.01  -0.06     0.01   0.00   0.00     0.02   0.01   0.04
  28   1     0.01   0.07   0.02     0.01  -0.00  -0.01     0.02  -0.06  -0.06
  29   1    -0.02  -0.04   0.02     0.02   0.00  -0.01     0.12   0.04  -0.04
  30   1    -0.03  -0.04  -0.09     0.03  -0.00  -0.03    -0.01   0.00   0.01
  31   1    -0.01   0.02  -0.05     0.03  -0.00  -0.02     0.01   0.04   0.03
  32   1     0.03   0.03  -0.08    -0.03  -0.07   0.11     0.00   0.01  -0.02
  33   1    -0.03  -0.06  -0.07     0.07   0.09   0.08    -0.01  -0.02  -0.02
  34   1     0.01  -0.06   0.07    -0.02   0.04  -0.08     0.00  -0.01   0.01
  35   1     0.02  -0.01  -0.03    -0.01  -0.03   0.03     0.00   0.00  -0.01
  36   1     0.03  -0.12  -0.05    -0.01   0.11   0.05     0.00  -0.02  -0.01
  37   1    -0.00   0.00   0.01     0.09   0.14  -0.05    -0.02  -0.03   0.01
  38   1    -0.01   0.01   0.00     0.06  -0.07  -0.11    -0.01   0.01   0.02
  39   1    -0.01  -0.00  -0.00    -0.01  -0.05  -0.06     0.00   0.01   0.01
  40   1     0.00  -0.01  -0.00    -0.02  -0.01   0.10     0.00   0.00  -0.02
  41   1    -0.02  -0.01  -0.01     0.09   0.08   0.00    -0.02  -0.01  -0.00
                     34                     35                     36
                        a                      a                      a 
 Frequencies --   402.9127               411.1622               431.1878
 Red. masses --    12.0119                17.3508                13.3012
 Frc consts  --     0.0000                 0.0000                 0.0000
 IR Inten    --     2.1049                24.1946                45.7046
 Raman Activ --     0.0000                 0.0000                 0.0000
 Depolar     --     0.0000                 0.0000                 0.0000
 Atom AN      X      Y      Z        X      Y      Z        X      Y      Z
   1   6     0.04   0.21  -0.22     0.01   0.05  -0.05     0.00   0.03  -0.03
   2   6     0.21   0.05   0.24     0.05   0.01   0.08     0.03   0.01   0.05
   3   8    -0.09  -0.48   0.00     0.01  -0.13   0.00    -0.01  -0.12  -0.01
   4  15    -0.14  -0.04   0.04    -0.06   0.01  -0.04    -0.04   0.03  -0.03
   5  16    -0.05   0.01   0.03    -0.02   0.03   0.02    -0.02   0.10   0.03
   6   8    -0.28   0.28  -0.06    -0.04   0.03  -0.02     0.09  -0.11  -0.02
   7   6     0.06  -0.11   0.15     0.01  -0.02   0.02     0.01   0.04  -0.06
   8   6     0.25  -0.01  -0.09     0.03  -0.00  -0.01    -0.05   0.00   0.02
   9  16     0.03   0.04  -0.05     0.07   0.06  -0.01     0.05  -0.01   0.03
  10   6     0.01   0.01   0.02     0.00  -0.02   0.04    -0.03  -0.01   0.03
  11  16    -0.06   0.06   0.02     0.20  -0.38  -0.06     0.00  -0.05   0.03
  12  15     0.04  -0.06  -0.03    -0.15   0.24   0.15     0.03   0.06  -0.08
  13  16     0.00  -0.02   0.03    -0.03   0.06  -0.10    -0.01   0.12  -0.19
  14   8     0.08  -0.06  -0.02    -0.37   0.27   0.12    -0.02  -0.11   0.07
  15   6    -0.06  -0.05   0.02     0.26   0.25  -0.05    -0.07  -0.12  -0.01
  16   6    -0.03   0.07   0.01     0.11  -0.29  -0.06    -0.01   0.03   0.01
  17   8    -0.01   0.02  -0.03     0.01  -0.08   0.03     0.41  -0.20   0.43
  18   6     0.01  -0.00   0.00    -0.04  -0.03  -0.00    -0.03   0.37   0.02
  19   6     0.01   0.00   0.01    -0.03  -0.00  -0.01    -0.26  -0.11  -0.14
  20   1     0.05   0.14  -0.09     0.01   0.03  -0.02     0.01   0.02  -0.01
  21   1     0.02   0.17  -0.16     0.00   0.04  -0.04     0.00   0.03  -0.03
  22   1    -0.12  -0.08  -0.12    -0.03  -0.02  -0.03    -0.02  -0.02  -0.02
  23   1     0.07   0.03   0.12     0.02   0.01   0.04     0.01   0.01   0.03
  24   1     0.00   0.07   0.03    -0.01   0.02   0.01    -0.01   0.02   0.00
  25   1     0.02  -0.05   0.05     0.00  -0.01   0.01     0.01   0.03  -0.03
  26   1     0.04  -0.04   0.00     0.01  -0.01   0.00    -0.01   0.02   0.01
  27   1     0.15  -0.01  -0.07     0.02  -0.00  -0.01    -0.05   0.00   0.02
  28   1    -0.01   0.08  -0.09    -0.00   0.01  -0.01     0.01  -0.03   0.03
  29   1     0.14  -0.02  -0.03     0.02  -0.00  -0.01    -0.04   0.01   0.01
  30   1     0.01  -0.00   0.03     0.01   0.02  -0.04    -0.02   0.00  -0.02
  31   1     0.01  -0.01  -0.01    -0.03   0.01   0.04    -0.02   0.01   0.02
  32   1    -0.02  -0.00   0.00     0.07   0.03   0.01    -0.01  -0.01  -0.02
  33   1    -0.02  -0.01   0.00     0.10   0.07  -0.01    -0.04  -0.05  -0.01
  34   1     0.04   0.02  -0.01    -0.17  -0.09   0.05     0.05   0.01  -0.01
  35   1    -0.02   0.05   0.01     0.09  -0.21  -0.05    -0.02   0.04   0.01
  36   1    -0.02   0.04   0.01     0.09  -0.18  -0.05    -0.02   0.03   0.01
  37   1     0.00  -0.00   0.00    -0.01  -0.01  -0.00    -0.01   0.15  -0.02
  38   1     0.00   0.00   0.00    -0.02  -0.01  -0.00    -0.02   0.04  -0.06
  39   1     0.01   0.00   0.01    -0.01  -0.00  -0.00    -0.19  -0.09  -0.12
  40   1     0.00   0.00  -0.00    -0.01   0.00  -0.00     0.07  -0.19   0.03
  41   1     0.01  -0.00   0.00    -0.01   0.00  -0.00    -0.18  -0.04  -0.10
                     37                     38                     39
                        a                      a                      a 
 Frequencies --   434.3086               458.9486               471.4164
 Red. masses --    15.3709                22.6033                25.5887
 Frc consts  --     0.0000                 0.0000                 0.0000
 IR Inten    --    41.5521               198.8853                59.6149
 Raman Activ --     0.0000                 0.0000                 0.0000
 Depolar     --     0.0000                 0.0000                 0.0000
 Atom AN      X      Y      Z        X      Y      Z        X      Y      Z
   1   6    -0.01  -0.10   0.10     0.02   0.04  -0.05    -0.03  -0.05   0.06
   2   6    -0.10  -0.01  -0.15     0.05  -0.00   0.02    -0.06   0.00  -0.01
   3   8     0.09   0.36   0.04    -0.21  -0.03   0.03     0.30  -0.00  -0.05
   4  15     0.09  -0.10   0.03     0.13  -0.06   0.32    -0.19   0.08  -0.49
   5  16     0.08  -0.32  -0.10     0.04  -0.09  -0.05    -0.07   0.23   0.10
   6   8    -0.33   0.39   0.07     0.10  -0.01  -0.05    -0.11  -0.06   0.06
   7   6    -0.03  -0.16   0.24     0.05   0.07  -0.11    -0.08  -0.08   0.14
   8   6     0.20  -0.01  -0.09    -0.04   0.00   0.02     0.03  -0.00  -0.02
   9  16    -0.07   0.13  -0.08    -0.14   0.08  -0.16     0.21  -0.20   0.27
  10   6     0.01   0.03   0.03    -0.01   0.05  -0.03     0.01  -0.02  -0.00
  11  16    -0.03  -0.04   0.02    -0.20   0.22   0.04    -0.12   0.20   0.00
  12  15     0.03  -0.01  -0.03     0.22  -0.31  -0.18     0.14  -0.20  -0.13
  13  16     0.00   0.03  -0.04     0.06  -0.10   0.26     0.04  -0.09   0.20
  14   8    -0.07   0.01   0.00    -0.38   0.15  -0.18    -0.22   0.08  -0.12
  15   6     0.01  -0.00  -0.00     0.13   0.09   0.01     0.06   0.04   0.01
  16   6     0.01  -0.02  -0.00     0.06  -0.12  -0.02     0.03  -0.06  -0.01
  17   8     0.12  -0.06   0.13     0.08   0.07   0.03     0.05   0.07  -0.01
  18   6    -0.01   0.12   0.01     0.03   0.14   0.02     0.03   0.08   0.01
  19   6    -0.08  -0.03  -0.05    -0.03  -0.02  -0.02    -0.01  -0.01  -0.01
  20   1    -0.03  -0.07   0.05     0.02   0.03  -0.04    -0.02  -0.04   0.05
  21   1    -0.01  -0.09   0.09     0.01   0.02  -0.02    -0.02  -0.02   0.02
  22   1     0.07   0.05   0.06    -0.03  -0.00  -0.02     0.04  -0.00   0.02
  23   1    -0.04  -0.02  -0.08     0.01  -0.00  -0.04    -0.01   0.00   0.07
  24   1     0.01  -0.04  -0.01     0.05  -0.01   0.01    -0.07   0.02  -0.02
  25   1    -0.02  -0.10   0.10     0.01   0.03  -0.04    -0.02  -0.03   0.04
  26   1     0.02  -0.06  -0.02     0.01   0.02  -0.01    -0.02  -0.03   0.02
  27   1     0.17  -0.02  -0.08    -0.05   0.00   0.02     0.05  -0.00  -0.02
  28   1    -0.04   0.11  -0.10     0.03  -0.03   0.04    -0.04   0.04  -0.05
  29   1     0.14  -0.03  -0.03    -0.04   0.01   0.01     0.05  -0.00  -0.01
  30   1     0.02   0.02   0.03     0.00  -0.01   0.05    -0.02  -0.03  -0.00
  31   1     0.01  -0.02  -0.00     0.02  -0.03  -0.04     0.02   0.04   0.00
  32   1     0.00  -0.01   0.00     0.02  -0.07   0.06     0.01  -0.04   0.04
  33   1     0.01   0.00  -0.00     0.09   0.08   0.03     0.05   0.04   0.02
  34   1    -0.01  -0.01   0.00    -0.09  -0.03  -0.00    -0.04  -0.02  -0.00
  35   1     0.00  -0.01  -0.00     0.05  -0.11  -0.01     0.02  -0.06  -0.01
  36   1     0.01  -0.01  -0.00     0.05  -0.06  -0.01     0.03  -0.03  -0.01
  37   1    -0.00   0.05  -0.01     0.01   0.05  -0.00     0.00   0.02   0.00
  38   1    -0.01   0.01  -0.02     0.01   0.03  -0.01     0.01   0.02   0.00
  39   1    -0.06  -0.03  -0.04    -0.04  -0.02  -0.02    -0.02  -0.01  -0.01
  40   1     0.02  -0.06   0.01     0.03  -0.05   0.01     0.02  -0.03   0.00
  41   1    -0.06  -0.01  -0.03    -0.04  -0.01  -0.02    -0.02  -0.01  -0.01
                     40                     41                     42
                        a                      a                      a 
 Frequencies --   612.1228               621.0652               666.4520
 Red. masses --    25.5329                25.8438                18.2908
 Frc consts  --     0.0000                 0.0000                 0.0000
 IR Inten    --   263.4776                56.0256                 7.6134
 Raman Activ --     0.0000                 0.0000                 0.0000
 Depolar     --     0.0000                 0.0000                 0.0000
 Atom AN      X      Y      Z        X      Y      Z        X      Y      Z
   1   6     0.01   0.01  -0.00     0.01   0.01  -0.01     0.00   0.00  -0.00
   2   6    -0.02   0.02  -0.08    -0.04   0.03  -0.16    -0.01   0.01  -0.03
   3   8     0.10  -0.03  -0.08     0.18  -0.05  -0.16     0.01  -0.01  -0.01
   4  15     0.15  -0.19   0.10     0.31  -0.37   0.24     0.01  -0.09   0.03
   5  16    -0.10   0.25   0.05    -0.17   0.44   0.09    -0.02   0.05   0.01
   6   8    -0.10  -0.09  -0.08    -0.18  -0.15  -0.16     0.01   0.03   0.00
   7   6    -0.04  -0.04   0.06    -0.08  -0.07   0.11     0.01   0.01  -0.01
   8   6    -0.00   0.00   0.00    -0.01   0.00   0.01     0.00   0.00   0.00
   9  16    -0.04  -0.03  -0.04    -0.08   0.03  -0.10     0.17   0.37   0.19
  10   6     0.08   0.13  -0.05     0.02   0.07   0.06     0.02  -0.34  -0.69
  11  16    -0.08   0.05   0.04     0.04  -0.07  -0.01    -0.19  -0.13   0.28
  12  15     0.30  -0.41   0.12    -0.17   0.24  -0.05     0.01   0.05  -0.04
  13  16    -0.14   0.27  -0.40     0.07  -0.14   0.20     0.01  -0.02   0.03
  14   8     0.06   0.06   0.22    -0.03  -0.03  -0.12     0.00   0.01  -0.00
  15   6     0.06   0.15   0.03    -0.04  -0.09  -0.01    -0.00  -0.01   0.00
  16   6    -0.00   0.01   0.00     0.00  -0.01  -0.00     0.00  -0.00   0.00
  17   8    -0.21  -0.01   0.21     0.11  -0.00  -0.11    -0.02  -0.01   0.02
  18   6    -0.06  -0.13  -0.02     0.03   0.07   0.01    -0.01  -0.02  -0.00
  19   6    -0.01  -0.00  -0.01     0.00   0.00   0.00    -0.00  -0.00  -0.00
  20   1    -0.00  -0.01   0.02    -0.01  -0.02   0.03    -0.00  -0.00   0.00
  21   1    -0.01  -0.01   0.01    -0.02  -0.03   0.03    -0.00  -0.00   0.00
  22   1     0.04   0.02   0.01     0.06   0.04   0.01     0.01   0.01   0.00
  23   1    -0.00   0.00   0.01    -0.01   0.00   0.01    -0.00   0.00  -0.00
  24   1    -0.02   0.02  -0.03    -0.04   0.03  -0.06    -0.00   0.00  -0.01
  25   1     0.01   0.02  -0.00     0.01   0.03  -0.01    -0.00  -0.00   0.00
  26   1    -0.02  -0.01   0.05    -0.03  -0.01   0.08     0.00   0.00  -0.01
  27   1     0.03  -0.00   0.00     0.05  -0.00   0.00    -0.01   0.00  -0.00
  28   1    -0.03   0.02  -0.02    -0.05   0.03  -0.04     0.00  -0.00   0.00
  29   1     0.02   0.01  -0.01     0.04   0.01  -0.01    -0.00  -0.00   0.00
  30   1     0.02   0.01   0.02     0.01   0.03   0.01     0.03  -0.08  -0.14
  31   1     0.03   0.00  -0.03    -0.00  -0.01   0.01    -0.01  -0.08  -0.17
  32   1     0.02   0.07  -0.01    -0.01  -0.04   0.00    -0.00  -0.00   0.00
  33   1    -0.00   0.00  -0.01     0.00  -0.00   0.01    -0.00  -0.00   0.00
  34   1    -0.06   0.00   0.03     0.04  -0.00  -0.02     0.00  -0.00  -0.00
  35   1     0.02  -0.03  -0.02    -0.01   0.02   0.01    -0.00   0.00   0.00
  36   1     0.01  -0.03  -0.01    -0.00   0.02   0.01    -0.00   0.00   0.00
  37   1     0.01   0.03  -0.02    -0.01  -0.02   0.01    -0.00   0.00  -0.00
  38   1    -0.01  -0.08  -0.05     0.01   0.04   0.03    -0.00  -0.01  -0.01
  39   1     0.04   0.00   0.01    -0.02  -0.00  -0.00     0.01   0.00   0.00
  40   1    -0.05   0.04  -0.01     0.03  -0.02   0.01    -0.01   0.01  -0.00
  41   1     0.03   0.02   0.00    -0.02  -0.01  -0.00     0.00   0.00   0.00
                     43                     44                     45
                        a                      a                      a 
 Frequencies --   696.7933               732.8956               736.9548
 Red. masses --    16.5148                18.4428                18.6628
 Frc consts  --     0.0000                 0.0000                 0.0000
 IR Inten    --    45.9226               346.8081                 9.4567
 Raman Activ --     0.0000                 0.0000                 0.0000
 Depolar     --     0.0000                 0.0000                 0.0000
 Atom AN      X      Y      Z        X      Y      Z        X      Y      Z
   1   6    -0.01  -0.01   0.01     0.02   0.04  -0.04     0.01   0.03  -0.03
   2   6     0.01  -0.01   0.05    -0.05   0.03  -0.20    -0.03   0.02  -0.14
   3   8    -0.04   0.02   0.03     0.23  -0.10  -0.10     0.17  -0.07  -0.07
   4  15    -0.02   0.07  -0.08    -0.37  -0.25   0.17    -0.27  -0.20   0.11
   5  16     0.02  -0.04  -0.00    -0.01   0.03   0.00    -0.01   0.03   0.01
   6   8     0.01  -0.01   0.02     0.17   0.25   0.21     0.13   0.19   0.16
   7   6     0.01   0.00  -0.01     0.12   0.14  -0.13     0.09   0.11  -0.10
   8   6     0.00  -0.00  -0.00     0.06  -0.01  -0.02     0.05  -0.00  -0.01
   9  16    -0.10  -0.26  -0.08    -0.02  -0.03  -0.02    -0.01  -0.02  -0.02
  10   6     0.50   0.58  -0.25     0.05   0.07  -0.00    -0.02   0.01   0.07
  11  16    -0.19  -0.20   0.28    -0.02  -0.01   0.03     0.02   0.01  -0.04
  12  15    -0.02   0.12  -0.01    -0.27  -0.23  -0.07     0.37   0.32   0.08
  13  16     0.02  -0.03   0.04     0.01   0.00   0.00    -0.01  -0.00   0.00
  14   8    -0.02  -0.01  -0.05     0.11  -0.01   0.20    -0.16   0.01  -0.27
  15   6    -0.02  -0.05  -0.01     0.07   0.15   0.04    -0.09  -0.21  -0.05
  16   6     0.01  -0.01  -0.01    -0.02   0.04   0.02     0.04  -0.06  -0.02
  17   8     0.00  -0.02   0.00     0.13   0.02  -0.19    -0.18  -0.02   0.25
  18   6     0.00   0.00   0.01     0.07   0.14  -0.00    -0.10  -0.20   0.00
  19   6     0.00  -0.00   0.00     0.04   0.01   0.02    -0.05  -0.02  -0.03
  20   1     0.00   0.00  -0.01    -0.00  -0.00   0.04    -0.01  -0.01   0.03
  21   1     0.01   0.01  -0.01    -0.04  -0.04   0.04    -0.03  -0.03   0.03
  22   1    -0.02  -0.02  -0.00     0.09   0.08   0.01     0.07   0.05   0.01
  23   1     0.00  -0.00  -0.00     0.01   0.03   0.05     0.00   0.02   0.03
  24   1     0.01  -0.01   0.02    -0.09   0.04  -0.08    -0.06   0.03  -0.06
  25   1     0.00  -0.00  -0.00    -0.02  -0.07   0.03    -0.01  -0.05   0.02
  26   1     0.00   0.00  -0.00     0.03   0.02  -0.16     0.02   0.02  -0.12
  27   1    -0.00   0.00   0.00    -0.09   0.00  -0.01    -0.07   0.00  -0.01
  28   1     0.00  -0.00   0.00     0.09  -0.07   0.06     0.07  -0.05   0.05
  29   1    -0.00  -0.00   0.00    -0.03  -0.04   0.02    -0.02  -0.03   0.02
  30   1     0.08   0.12  -0.14     0.01   0.01  -0.01    -0.01   0.00   0.01
  31   1     0.05   0.17  -0.00     0.01   0.02   0.00    -0.00   0.00   0.01
  32   1    -0.01  -0.02   0.00     0.03   0.09  -0.04    -0.05  -0.12   0.05
  33   1     0.00  -0.00   0.00    -0.02  -0.01  -0.02     0.03   0.01   0.02
  34   1     0.02  -0.00  -0.01    -0.08   0.01   0.03     0.11  -0.01  -0.04
  35   1    -0.01   0.01   0.00     0.03  -0.03  -0.03    -0.04   0.04   0.03
  36   1    -0.00   0.01   0.00    -0.01  -0.02  -0.01     0.01   0.03   0.02
  37   1    -0.00  -0.00   0.00    -0.01  -0.04   0.02     0.01   0.05  -0.03
  38   1    -0.00  -0.00   0.00    -0.00   0.09   0.05     0.00  -0.13  -0.07
  39   1     0.00  -0.00  -0.00    -0.06   0.00  -0.01     0.08  -0.00   0.01
  40   1     0.00  -0.00  -0.00     0.07  -0.05   0.03    -0.09   0.08  -0.04
  41   1    -0.00   0.00  -0.00    -0.02  -0.03   0.01     0.02   0.04  -0.01
                     46                     47                     48
                        a                      a                      a 
 Frequencies --   768.2923               771.9226               800.6409
 Red. masses --    21.5855                21.5562                 5.8479
 Frc consts  --     0.0000                 0.0000                 0.0000
 IR Inten    --   183.6456               415.0499                 5.9579
 Raman Activ --     0.0000                 0.0000                 0.0000
 Depolar     --     0.0000                 0.0000                 0.0000
 Atom AN      X      Y      Z        X      Y      Z        X      Y      Z
   1   6    -0.02  -0.05   0.05    -0.02  -0.04   0.04    -0.00  -0.00  -0.00
   2   6     0.04  -0.01   0.21     0.03  -0.01   0.15     0.00  -0.00  -0.00
   3   8    -0.22   0.17   0.11    -0.17   0.13   0.09    -0.00  -0.00   0.01
   4  15     0.12  -0.43  -0.31     0.10  -0.31  -0.23    -0.01   0.04  -0.01
   5  16    -0.08   0.20   0.04    -0.05   0.14   0.03     0.00  -0.00   0.00
   6   8     0.06   0.16   0.15     0.04   0.11   0.11    -0.00  -0.01   0.02
   7   6     0.07   0.09  -0.07     0.05   0.06  -0.05     0.01   0.01  -0.01
   8   6     0.04  -0.00  -0.01     0.03  -0.00  -0.01     0.01   0.00  -0.00
   9  16    -0.02   0.03  -0.01    -0.02  -0.00  -0.02     0.09  -0.12   0.04
  10   6     0.00  -0.01   0.01    -0.02   0.02   0.06    -0.40   0.33  -0.17
  11  16    -0.00   0.02  -0.01     0.03  -0.01  -0.01     0.08  -0.11   0.06
  12  15    -0.01  -0.11   0.39    -0.02   0.13  -0.54     0.00   0.04  -0.00
  13  16    -0.04   0.08  -0.13     0.06  -0.11   0.17    -0.00   0.00  -0.00
  14   8    -0.07   0.03  -0.18     0.11  -0.04   0.26    -0.00  -0.01  -0.01
  15   6    -0.05  -0.10  -0.03     0.08   0.14   0.05    -0.00  -0.00  -0.00
  16   6     0.02  -0.03  -0.01    -0.03   0.05   0.02    -0.00  -0.00   0.00
  17   8     0.09   0.01  -0.18    -0.10  -0.00   0.24     0.00  -0.02  -0.02
  18   6     0.06   0.12  -0.01    -0.08  -0.15   0.02     0.01   0.02  -0.00
  19   6     0.03   0.01   0.02    -0.05  -0.01  -0.02     0.01   0.00   0.00
  20   1    -0.00  -0.01  -0.05    -0.00  -0.00  -0.04     0.00   0.00   0.00
  21   1     0.06   0.05  -0.04     0.04   0.04  -0.03    -0.00  -0.00   0.00
  22   1    -0.10  -0.09  -0.02    -0.08  -0.07  -0.01     0.00   0.00  -0.00
  23   1    -0.01  -0.04  -0.07    -0.01  -0.02  -0.05     0.00   0.00   0.00
  24   1     0.13  -0.04   0.09     0.09  -0.03   0.06    -0.00  -0.00   0.00
  25   1    -0.01  -0.06   0.03    -0.01  -0.04   0.02     0.00  -0.01   0.00
  26   1     0.00   0.01  -0.12     0.00   0.01  -0.08    -0.01   0.00  -0.01
  27   1    -0.06   0.00  -0.01    -0.04   0.00  -0.01    -0.01   0.00  -0.00
  28   1     0.06  -0.05   0.04     0.04  -0.03   0.03     0.01  -0.01   0.00
  29   1    -0.01  -0.03   0.02    -0.01  -0.02   0.01     0.00  -0.01   0.00
  30   1     0.00  -0.01   0.01    -0.00   0.01   0.02     0.14   0.08   0.55
  31   1     0.00  -0.02  -0.00     0.00  -0.01   0.00     0.25  -0.27  -0.43
  32   1    -0.03  -0.08   0.04     0.06   0.12  -0.07     0.00  -0.00  -0.00
  33   1     0.04   0.02   0.02    -0.06  -0.03  -0.03    -0.00  -0.00   0.00
  34   1     0.06  -0.01  -0.02    -0.09   0.01   0.03     0.00  -0.00  -0.00
  35   1    -0.02   0.02   0.02     0.04  -0.03  -0.04     0.00   0.00  -0.00
  36   1     0.02   0.02   0.01    -0.03  -0.02  -0.02    -0.00   0.00   0.00
  37   1    -0.01  -0.05   0.03     0.01   0.07  -0.04     0.00  -0.01   0.01
  38   1    -0.02   0.10   0.06     0.03  -0.13  -0.07    -0.01   0.02   0.01
  39   1    -0.06   0.01  -0.01     0.08  -0.01   0.01    -0.01   0.00   0.00
  40   1     0.06  -0.05   0.03    -0.07   0.06  -0.04     0.01  -0.01   0.01
  41   1    -0.01  -0.03   0.01     0.01   0.04  -0.02     0.01  -0.01   0.01
                     49                     50                     51
                        a                      a                      a 
 Frequencies --   820.1037               820.6152               821.1170
 Red. masses --     3.0371                 3.1583                 2.9635
 Frc consts  --     0.0000                 0.0000                 0.0000
 IR Inten    --     4.4845                 1.3993                 0.8389
 Raman Activ --     0.0000                 0.0000                 0.0000
 Depolar     --     0.0000                 0.0000                 0.0000
 Atom AN      X      Y      Z        X      Y      Z        X      Y      Z
   1   6    -0.04   0.07   0.02     0.00  -0.01  -0.00    -0.04   0.07   0.01
   2   6    -0.12   0.16   0.04     0.02  -0.03   0.00    -0.13   0.16   0.03
   3   8     0.09  -0.11  -0.02    -0.02   0.01  -0.02     0.11  -0.12  -0.01
   4  15    -0.03   0.05   0.05     0.05   0.09   0.04    -0.05   0.02   0.04
   5  16     0.01  -0.02  -0.00     0.01  -0.02  -0.00     0.00  -0.01  -0.00
   6   8    -0.00  -0.05  -0.05    -0.02  -0.15  -0.15     0.01   0.02   0.02
   7   6    -0.00   0.06   0.06     0.00   0.19   0.18    -0.00  -0.03  -0.03
   8   6    -0.01   0.03   0.02    -0.02   0.09   0.06     0.00  -0.01  -0.01
   9  16     0.00  -0.00  -0.00     0.00   0.01   0.00     0.00  -0.00  -0.00
  10   6     0.00   0.00  -0.00     0.01  -0.01  -0.00    -0.00   0.00   0.00
  11  16    -0.00   0.00   0.00    -0.00   0.00  -0.00     0.00  -0.00  -0.00
  12  15    -0.03  -0.01  -0.05     0.02   0.01   0.01     0.02   0.00   0.05
  13  16     0.00  -0.01   0.01    -0.00   0.00  -0.00    -0.00   0.01  -0.01
  14   8     0.06  -0.06   0.11    -0.03   0.03  -0.05    -0.06   0.06  -0.11
  15   6    -0.06   0.07  -0.16     0.03  -0.03   0.08     0.06  -0.07   0.17
  16   6    -0.04   0.03  -0.06     0.02  -0.01   0.03     0.04  -0.03   0.06
  17   8    -0.00  -0.00  -0.00    -0.01   0.00   0.03     0.00   0.00  -0.00
  18   6    -0.00   0.00   0.02     0.01  -0.00  -0.04     0.00   0.00  -0.01
  19   6     0.00  -0.00   0.01     0.00   0.00  -0.02     0.00   0.00  -0.00
  20   1    -0.15  -0.26  -0.04     0.02   0.04   0.00    -0.16  -0.27  -0.04
  21   1     0.27   0.08  -0.05    -0.04  -0.01   0.01     0.28   0.08  -0.05
  22   1     0.08  -0.06  -0.05    -0.01   0.01   0.01     0.09  -0.05  -0.05
  23   1    -0.18  -0.23  -0.15     0.03   0.03   0.02    -0.19  -0.24  -0.16
  24   1     0.32   0.03   0.00    -0.05  -0.00  -0.00     0.33   0.04  -0.00
  25   1     0.06  -0.11   0.06     0.20  -0.36   0.18    -0.03   0.06  -0.03
  26   1    -0.08   0.00  -0.11    -0.27   0.02  -0.34     0.05  -0.00   0.06
  27   1    -0.10   0.00  -0.07    -0.31   0.01  -0.24     0.05  -0.00   0.04
  28   1    -0.02  -0.03  -0.03    -0.07  -0.10  -0.10     0.01   0.02   0.01
  29   1     0.09  -0.09   0.02     0.30  -0.29   0.07    -0.05   0.05  -0.01
  30   1     0.00   0.00   0.00    -0.00  -0.00  -0.02    -0.00  -0.00   0.00
  31   1     0.00   0.00  -0.00    -0.01   0.00   0.01     0.00   0.00  -0.00
  32   1    -0.19  -0.04   0.24     0.09   0.02  -0.11     0.20   0.04  -0.25
  33   1     0.31   0.03   0.01    -0.15  -0.02  -0.01    -0.33  -0.03  -0.01
  34   1     0.01  -0.01   0.10    -0.01   0.00  -0.05    -0.02   0.01  -0.11
  35   1    -0.18   0.04   0.20     0.09  -0.02  -0.10     0.19  -0.04  -0.21
  36   1     0.28  -0.08  -0.01    -0.13   0.04   0.00    -0.29   0.08   0.01
  37   1    -0.01   0.02  -0.01     0.03  -0.05   0.03     0.01  -0.02   0.01
  38   1     0.02  -0.02  -0.01    -0.05   0.04   0.02    -0.01   0.01   0.01
  39   1     0.02  -0.01  -0.00    -0.05   0.02   0.01    -0.02   0.01   0.00
  40   1     0.01  -0.00  -0.01    -0.01   0.00   0.02    -0.00  -0.00   0.01
  41   1    -0.01   0.01  -0.01     0.04  -0.03   0.04     0.01  -0.01   0.01
                     52                     53                     54
                        a                      a                      a 
 Frequencies --   823.5827               913.0485               917.0480
 Red. masses --     3.3417                13.3748                12.9218
 Frc consts  --     0.0000                 0.0000                 0.0000
 IR Inten    --     3.7723               422.7155               334.6841
 Raman Activ --     0.0000                 0.0000                 0.0000
 Depolar     --     0.0000                 0.0000                 0.0000
 Atom AN      X      Y      Z        X      Y      Z        X      Y      Z
   1   6    -0.00   0.00  -0.00     0.07   0.14  -0.12     0.00   0.01  -0.00
   2   6    -0.00   0.01   0.00    -0.14   0.10  -0.24    -0.01   0.00  -0.01
   3   8     0.00  -0.00   0.00    -0.06  -0.20   0.49    -0.00  -0.01   0.02
   4  15    -0.01  -0.01  -0.00     0.19   0.07  -0.13     0.01   0.01  -0.00
   5  16    -0.00   0.00   0.00    -0.01   0.00   0.00     0.00  -0.00  -0.00
   6   8     0.00   0.02   0.02    -0.42  -0.17   0.21    -0.02  -0.01   0.01
   7   6     0.00  -0.02  -0.02     0.12   0.08  -0.24     0.01   0.00  -0.01
   8   6     0.00  -0.01  -0.01     0.20  -0.01  -0.04     0.01   0.00  -0.00
   9  16    -0.00   0.00  -0.00    -0.00   0.01  -0.01     0.00  -0.00  -0.00
  10   6     0.01  -0.01   0.01     0.01  -0.01   0.01    -0.01   0.01  -0.01
  11  16     0.00   0.00  -0.00     0.00   0.00  -0.00    -0.00  -0.02   0.00
  12  15     0.05   0.04  -0.10     0.00   0.01   0.00    -0.17  -0.16  -0.03
  13  16     0.01  -0.01   0.02    -0.00   0.00  -0.00     0.00   0.00  -0.00
  14   8     0.00   0.00   0.03     0.00  -0.01  -0.00     0.03   0.45   0.16
  15   6    -0.01  -0.00  -0.02     0.00   0.01  -0.00    -0.09  -0.25   0.04
  16   6    -0.01   0.00  -0.01    -0.00   0.00   0.00     0.09  -0.17  -0.06
  17   8    -0.06   0.02   0.22    -0.02  -0.02  -0.01     0.39   0.34   0.06
  18   6     0.07  -0.03  -0.26     0.00   0.01   0.00    -0.06  -0.26  -0.10
  19   6     0.00   0.00  -0.12     0.01   0.00   0.01    -0.20  -0.04  -0.08
  20   1    -0.01  -0.01  -0.00    -0.01  -0.02   0.05    -0.00  -0.00   0.00
  21   1     0.01   0.00  -0.00    -0.03  -0.05   0.05     0.00  -0.00   0.00
  22   1     0.00  -0.00  -0.00     0.19   0.16   0.01     0.01   0.01   0.00
  23   1    -0.01  -0.01  -0.01    -0.03   0.01   0.00    -0.00  -0.00  -0.00
  24   1     0.01   0.00   0.00    -0.07  -0.07   0.03    -0.00  -0.00   0.00
  25   1    -0.02   0.04  -0.02    -0.00  -0.01  -0.03    -0.00   0.00  -0.00
  26   1     0.03  -0.00   0.04    -0.09   0.03  -0.02    -0.00   0.00  -0.00
  27   1     0.03  -0.00   0.03    -0.08   0.01   0.01    -0.00   0.00   0.00
  28   1     0.01   0.01   0.01     0.19  -0.12   0.11     0.01  -0.00   0.00
  29   1    -0.03   0.03  -0.01    -0.04  -0.03   0.02    -0.00  -0.00   0.00
  30   1    -0.00  -0.00  -0.01    -0.00  -0.00  -0.01     0.01   0.01   0.01
  31   1    -0.01   0.01   0.01    -0.01   0.00   0.01     0.00  -0.01  -0.01
  32   1    -0.03  -0.00   0.04     0.00  -0.00  -0.00    -0.08   0.04   0.05
  33   1     0.05   0.00   0.00     0.00  -0.00  -0.00    -0.02   0.00   0.03
  34   1     0.01  -0.00   0.02    -0.01   0.00   0.00     0.25  -0.04  -0.10
  35   1    -0.03   0.01   0.03     0.00  -0.00   0.00    -0.04   0.07   0.03
  36   1     0.04  -0.01  -0.00     0.00  -0.00  -0.00    -0.01   0.06   0.03
  37   1     0.20  -0.35   0.24    -0.00   0.00   0.00     0.02  -0.03  -0.02
  38   1    -0.35   0.26   0.13    -0.00   0.00  -0.00     0.10  -0.02   0.04
  39   1    -0.37   0.17   0.06    -0.00  -0.00  -0.00     0.08   0.02   0.03
  40   1    -0.11   0.01   0.12     0.01  -0.01   0.00    -0.21   0.15  -0.08
  41   1     0.28  -0.21   0.26    -0.00  -0.00  -0.00     0.04   0.04   0.00
                     55                     56                     57
                        a                      a                      a 
 Frequencies --   942.1524               944.6940              1033.3700
 Red. masses --    12.0341                11.3902                 8.3191
 Frc consts  --     0.0000                 0.0000                 0.0000
 IR Inten    --   120.0127                95.1464               184.1485
 Raman Activ --     0.0000                 0.0000                 0.0000
 Depolar     --     0.0000                 0.0000                 0.0000
 Atom AN      X      Y      Z        X      Y      Z        X      Y      Z
   1   6     0.08   0.14  -0.13     0.01   0.02  -0.02     0.18   0.29  -0.22
   2   6    -0.13   0.06  -0.17    -0.02   0.01  -0.02    -0.14  -0.37   0.35
   3   8    -0.12  -0.18   0.45    -0.01  -0.02   0.05    -0.08   0.11  -0.22
   4  15     0.00  -0.12  -0.15     0.00  -0.01  -0.02    -0.00  -0.00  -0.01
   5  16    -0.01   0.02   0.00    -0.00   0.00   0.00    -0.00   0.00   0.00
   6   8     0.42   0.16  -0.20     0.04   0.02  -0.02     0.07   0.03  -0.09
   7   6    -0.04  -0.08   0.22    -0.00  -0.01   0.02    -0.25   0.02   0.08
   8   6    -0.26   0.02   0.05    -0.03   0.00   0.01     0.20  -0.03  -0.02
   9  16    -0.01  -0.01  -0.02     0.00  -0.00  -0.00     0.00  -0.00   0.01
  10   6    -0.00   0.02   0.01     0.00   0.01  -0.02    -0.00   0.00  -0.00
  11  16     0.00  -0.00  -0.00    -0.01   0.01   0.02     0.00  -0.00   0.00
  12  15     0.00  -0.00  -0.02    -0.03   0.00   0.18    -0.00  -0.00  -0.00
  13  16     0.00  -0.00   0.00    -0.00   0.01  -0.01     0.00  -0.00   0.00
  14   8     0.01   0.05   0.02    -0.07  -0.44  -0.19     0.00   0.01   0.00
  15   6    -0.01  -0.02   0.01     0.12   0.17  -0.06     0.01  -0.02  -0.01
  16   6     0.01  -0.02  -0.01    -0.14   0.22   0.09    -0.01   0.01   0.01
  17   8    -0.04  -0.03  -0.01     0.35   0.29   0.06     0.00   0.00   0.00
  18   6    -0.00   0.02   0.01     0.01  -0.20  -0.06    -0.01  -0.00  -0.00
  19   6     0.02   0.01   0.01    -0.23  -0.05  -0.10     0.01   0.00   0.00
  20   1    -0.01  -0.02   0.06    -0.00  -0.00   0.01    -0.01  -0.04   0.10
  21   1    -0.03  -0.06   0.05    -0.00  -0.01   0.01     0.03  -0.07   0.08
  22   1     0.20   0.17   0.01     0.02   0.02   0.00     0.34   0.26   0.01
  23   1    -0.04  -0.00   0.00    -0.00  -0.00   0.00    -0.08  -0.17   0.09
  24   1    -0.06  -0.09   0.05    -0.01  -0.01   0.01    -0.08  -0.13   0.12
  25   1     0.05  -0.01   0.03     0.01  -0.00   0.00    -0.10   0.02   0.02
  26   1     0.11  -0.03   0.01     0.01  -0.00   0.00    -0.10   0.01   0.01
  27   1     0.09  -0.01  -0.03     0.01  -0.00  -0.00    -0.04   0.00   0.04
  28   1    -0.25   0.15  -0.15    -0.03   0.02  -0.02     0.17  -0.09   0.10
  29   1     0.08   0.02  -0.03     0.01   0.00  -0.00    -0.05  -0.02   0.03
  30   1    -0.00  -0.00   0.01     0.01   0.01   0.01    -0.00  -0.00   0.00
  31   1     0.01   0.01  -0.01     0.00  -0.01  -0.01     0.00   0.00  -0.00
  32   1    -0.01   0.01   0.01     0.09  -0.08  -0.05     0.00  -0.01  -0.00
  33   1    -0.00   0.00   0.00     0.04  -0.02  -0.04     0.01  -0.01  -0.00
  34   1     0.03  -0.01  -0.01    -0.30   0.05   0.13    -0.02   0.00   0.01
  35   1    -0.01   0.01   0.00     0.04  -0.08  -0.02    -0.00  -0.00   0.00
  36   1    -0.00   0.01   0.00     0.01  -0.07  -0.03     0.00  -0.00  -0.00
  37   1    -0.01   0.00  -0.00     0.06  -0.02   0.01    -0.00  -0.00  -0.00
  38   1    -0.01   0.00  -0.01     0.11  -0.01   0.05    -0.00  -0.00  -0.00
  39   1    -0.01  -0.00  -0.00     0.07   0.03   0.04    -0.00  -0.00  -0.00
  40   1     0.03  -0.02   0.01    -0.25   0.17  -0.08     0.01  -0.00   0.00
  41   1    -0.01  -0.00  -0.00     0.07   0.04   0.02    -0.00  -0.00  -0.00
                     58                     59                     60
                        a                      a                      a 
 Frequencies --  1037.1728              1047.9761              1053.3458
 Red. masses --     8.5963                 9.7417                10.1146
 Frc consts  --     0.0000                 0.0000                 0.0000
 IR Inten    --   235.9187                97.2444                80.7345
 Raman Activ --     0.0000                 0.0000                 0.0000
 Depolar     --     0.0000                 0.0000                 0.0000
 Atom AN      X      Y      Z        X      Y      Z        X      Y      Z
   1   6     0.01   0.01  -0.01    -0.09  -0.13   0.08    -0.01  -0.01   0.00
   2   6    -0.01  -0.01   0.01     0.06   0.20  -0.19     0.01   0.01  -0.00
   3   8    -0.00   0.00  -0.00     0.00  -0.09   0.18     0.00  -0.00   0.00
   4  15     0.00  -0.00  -0.00     0.00  -0.00  -0.02    -0.00   0.00   0.00
   5  16    -0.00   0.00   0.00     0.00  -0.00  -0.00     0.00  -0.00   0.00
   6   8     0.01   0.00  -0.01     0.24   0.09  -0.24    -0.00  -0.00   0.00
   7   6    -0.02   0.00   0.01    -0.53   0.03   0.18     0.00   0.00  -0.00
   8   6     0.01  -0.00  -0.00     0.37  -0.07  -0.01    -0.00   0.00   0.00
   9  16    -0.00   0.00   0.00    -0.01  -0.00  -0.01    -0.00   0.00  -0.00
  10   6     0.00  -0.00  -0.00    -0.00   0.00   0.00     0.00   0.00   0.00
  11  16    -0.00   0.01   0.00     0.00  -0.00   0.00     0.01  -0.01  -0.01
  12  15     0.01   0.00  -0.00     0.00  -0.00  -0.00     0.01  -0.01  -0.03
  13  16     0.00  -0.00  -0.00    -0.00  -0.00   0.00    -0.00   0.00  -0.00
  14   8    -0.04  -0.22  -0.01    -0.00   0.00   0.00     0.08   0.32   0.05
  15   6    -0.15   0.37   0.11     0.00  -0.01  -0.00     0.14  -0.41  -0.10
  16   6     0.17  -0.23  -0.10    -0.00   0.00   0.00    -0.14   0.21   0.09
  17   8    -0.11  -0.18  -0.08     0.00   0.00   0.00    -0.18  -0.23  -0.09
  18   6     0.37   0.14   0.19    -0.01  -0.00  -0.00     0.37   0.15   0.19
  19   6    -0.29  -0.03  -0.13     0.00   0.00   0.00    -0.26   0.00  -0.10
  20   1     0.00  -0.00   0.00     0.00   0.02  -0.04    -0.00  -0.00   0.00
  21   1     0.00  -0.00   0.00    -0.03   0.02  -0.03    -0.00  -0.00   0.00
  22   1     0.01   0.01   0.00    -0.14  -0.10  -0.00    -0.00  -0.00   0.00
  23   1    -0.00  -0.01   0.00     0.04   0.09  -0.06     0.00   0.00   0.00
  24   1    -0.00  -0.01   0.01     0.04   0.04  -0.04     0.00   0.00  -0.00
  25   1    -0.01   0.00   0.00    -0.19   0.05   0.03     0.00  -0.00  -0.00
  26   1    -0.01   0.00   0.00    -0.18   0.02   0.02     0.00   0.00  -0.00
  27   1    -0.00   0.00   0.00    -0.05  -0.00   0.08     0.00  -0.00  -0.00
  28   1     0.01  -0.01   0.01     0.28  -0.15   0.16    -0.00   0.00  -0.00
  29   1    -0.00  -0.00   0.00    -0.05  -0.04   0.05     0.00   0.00  -0.00
[...]
  33   1     0.00   0.00  -0.00     0.00   0.00  -0.00     0.00   0.00  -0.00
  34   1     0.00   0.00  -0.00     0.00  -0.00  -0.00    -0.00  -0.00  -0.00
  35   1    -0.00  -0.00  -0.00     0.00   0.00   0.00     0.00   0.00   0.00
  36   1    -0.00  -0.00   0.00    -0.00  -0.00   0.00    -0.00  -0.00   0.00
  37   1     0.03  -0.00  -0.07    -0.00   0.00   0.00     0.00   0.00  -0.00
  38   1    -0.15  -0.65   0.69     0.00   0.02  -0.02    -0.00  -0.01   0.01
  39   1     0.01   0.06  -0.06    -0.00  -0.00   0.00     0.00   0.00  -0.00
  40   1     0.01   0.01   0.01    -0.00  -0.00  -0.00     0.00   0.00   0.00
  41   1     0.00  -0.01  -0.01     0.00   0.00  -0.00     0.00  -0.00   0.00
                    103                    104                    105
                        a                      a                      a 
 Frequencies --  2971.1927              2975.7472              2985.0872
 Red. masses --     1.4670                 1.7195                 2.0649
 Frc consts  --     0.0000                 0.0000                 0.0000
 IR Inten    --     0.1604                13.6466                12.0918
 Raman Activ --     0.0000                 0.0000                 0.0000
 Depolar     --     0.0000                 0.0000                 0.0000
 Atom AN      X      Y      Z        X      Y      Z        X      Y      Z
   1   6    -0.00   0.00   0.00    -0.00   0.00   0.00    -0.00   0.00  -0.00
   2   6     0.00   0.00   0.00    -0.00  -0.00  -0.00     0.00   0.00   0.00
   3   8    -0.00   0.00  -0.00     0.00   0.00   0.00    -0.00   0.00   0.00
   4  15     0.00  -0.00   0.00    -0.00   0.00  -0.00     0.00  -0.00   0.00
   5  16    -0.00  -0.00   0.00    -0.00   0.00   0.00     0.00  -0.00   0.00
   6   8    -0.00  -0.00  -0.00     0.00   0.00   0.00    -0.00   0.00  -0.00
   7   6    -0.00  -0.00  -0.00    -0.00   0.00  -0.00     0.00  -0.00   0.00
   8   6     0.00   0.00   0.00    -0.00  -0.00   0.00     0.00   0.00  -0.00
   9  16     0.00   0.00   0.00     0.00   0.00   0.00    -0.00   0.00  -0.00
  10   6    -0.01   0.06   0.19     0.00  -0.00  -0.00    -0.24   0.17  -0.08
  11  16    -0.00  -0.00   0.00     0.00  -0.00  -0.00    -0.00   0.00  -0.00
  12  15    -0.00   0.00   0.00     0.00  -0.00  -0.00     0.00  -0.00  -0.00
  13  16     0.00   0.00   0.00    -0.00  -0.00  -0.00     0.00  -0.00   0.00
  14   8     0.00  -0.00  -0.00     0.00   0.01   0.00    -0.00  -0.00  -0.00
  15   6     0.00   0.00  -0.00     0.20   0.06   0.14     0.00   0.00   0.00
  16   6     0.00   0.00   0.00    -0.02  -0.01  -0.02    -0.00  -0.00   0.00
  17   8     0.00  -0.00  -0.00     0.00   0.00   0.00    -0.00   0.00  -0.00
  18   6     0.00   0.00  -0.00    -0.00  -0.00   0.00    -0.00  -0.00   0.00
  19   6    -0.00  -0.00   0.00     0.00   0.00   0.00     0.00   0.00   0.00
  20   1    -0.00   0.00   0.00     0.00  -0.00   0.00     0.00  -0.00  -0.00
  21   1     0.00  -0.00  -0.00     0.00  -0.00  -0.00    -0.00   0.00   0.00
  22   1     0.00  -0.00   0.00    -0.00   0.00  -0.00     0.00  -0.00   0.00
  23   1    -0.00   0.00   0.00     0.00  -0.00  -0.00    -0.00   0.00   0.00
  24   1    -0.00  -0.01  -0.02     0.00   0.00   0.00    -0.00  -0.00  -0.01
  25   1     0.00   0.00   0.00     0.00   0.00   0.00    -0.00  -0.00  -0.00
  26   1     0.00   0.02  -0.00    -0.00  -0.01   0.00     0.00   0.00  -0.00
  27   1    -0.00  -0.00   0.00     0.00   0.00  -0.00    -0.00  -0.00   0.00
  28   1    -0.00   0.00   0.00     0.00  -0.00  -0.00    -0.00  -0.00   0.00
  29   1    -0.00  -0.00  -0.00     0.00  -0.00  -0.00     0.00   0.00   0.00
  30   1     0.48  -0.42  -0.17    -0.00   0.00   0.00     0.50  -0.45  -0.21
  31   1    -0.43   0.20  -0.54     0.00  -0.00  -0.00     0.37  -0.16   0.50
  32   1    -0.00  -0.00  -0.00    -0.75  -0.22  -0.55    -0.00  -0.00  -0.00
  33   1    -0.00  -0.00   0.00     0.02  -0.01   0.05     0.00  -0.00   0.00
  34   1     0.00  -0.00   0.00    -0.00   0.02  -0.00    -0.00   0.00   0.00
  35   1    -0.00  -0.00  -0.00     0.09   0.03   0.07     0.00   0.00   0.00
  36   1     0.00   0.00  -0.00    -0.01  -0.01   0.01    -0.00   0.00  -0.00
  37   1    -0.00   0.00   0.00    -0.00   0.00   0.00    -0.00   0.00   0.00
  38   1    -0.00  -0.00   0.00     0.00   0.01  -0.01     0.00   0.00  -0.00
  39   1     0.00   0.00  -0.00    -0.00  -0.00   0.00    -0.00  -0.00   0.00
  40   1     0.00   0.00   0.00    -0.00  -0.00  -0.00    -0.00  -0.00  -0.00
  41   1     0.00  -0.00  -0.00     0.00  -0.00  -0.00     0.00  -0.00  -0.00
                    106                    107                    108
                        a                      a                      a 
 Frequencies --  3022.5573              3034.2293              3039.0392
 Red. masses --     1.7502                 1.8387                 1.7621
 Frc consts  --     0.0000                 0.0000                 0.0000
 IR Inten    --    41.1316                39.4013                28.3445
 Raman Activ --     0.0000                 0.0000                 0.0000
 Depolar     --     0.0000                 0.0000                 0.0000
 Atom AN      X      Y      Z        X      Y      Z        X      Y      Z
   1   6     0.00  -0.00  -0.00     0.07  -0.20  -0.18    -0.00   0.00   0.00
   2   6    -0.00  -0.00  -0.00     0.01  -0.02  -0.02    -0.00   0.00   0.00
   3   8     0.00  -0.00  -0.00     0.00   0.00  -0.00     0.00  -0.00  -0.00
   4  15    -0.00   0.00  -0.00    -0.00  -0.00   0.00     0.00  -0.00  -0.00
   5  16     0.00  -0.00  -0.00     0.00   0.00  -0.00    -0.00  -0.00  -0.00
   6   8     0.00  -0.00  -0.00    -0.00  -0.00   0.00    -0.00  -0.00   0.00
   7   6     0.00  -0.00  -0.00    -0.00  -0.00  -0.00    -0.00  -0.03  -0.00
   8   6     0.00  -0.00  -0.00    -0.00  -0.01  -0.00    -0.02  -0.26  -0.00
   9  16     0.00   0.00   0.00     0.00  -0.00   0.00     0.00  -0.00   0.00
  10   6    -0.00  -0.00  -0.00     0.00   0.00   0.00    -0.00   0.00   0.00
  11  16     0.00  -0.00  -0.00    -0.00   0.00  -0.00     0.00  -0.00  -0.00
  12  15     0.00  -0.00  -0.00    -0.00   0.00   0.00    -0.00   0.00   0.00
  13  16    -0.00   0.00   0.00     0.00  -0.00   0.00     0.00  -0.00   0.00
  14   8    -0.00   0.00   0.00     0.00  -0.00  -0.00    -0.00  -0.00  -0.00
  15   6     0.03   0.01   0.02    -0.00  -0.00   0.00    -0.00   0.00  -0.00
  16   6     0.19   0.05   0.17    -0.00  -0.00  -0.00    -0.00   0.00  -0.00
  17   8    -0.00   0.00   0.00     0.00   0.00  -0.00     0.00   0.00   0.00
  18   6     0.00  -0.00  -0.00    -0.00  -0.00   0.00     0.00   0.00  -0.00
  19   6     0.00  -0.00   0.00     0.00   0.00  -0.00     0.00   0.00  -0.00
  20   1    -0.01   0.00  -0.00    -0.22   0.10  -0.03     0.01  -0.00   0.00
  21   1     0.00   0.00   0.00    -0.02   0.62   0.69     0.00  -0.01  -0.01
  22   1     0.00  -0.00   0.00     0.01  -0.02  -0.04    -0.00   0.00  -0.00
  23   1     0.00  -0.00  -0.00    -0.02   0.01   0.00     0.00  -0.00  -0.00
  24   1    -0.00   0.00   0.00     0.00   0.06   0.07    -0.00  -0.00  -0.00
  25   1     0.00  -0.00  -0.00     0.00   0.00   0.00     0.00   0.00   0.01
  26   1     0.00   0.00   0.00     0.00   0.00  -0.00     0.01   0.08  -0.01
  27   1     0.00   0.00  -0.00     0.00   0.02  -0.00     0.08   0.95  -0.09
  28   1    -0.00  -0.00   0.00    -0.00  -0.00   0.00    -0.02  -0.04   0.01
  29   1     0.00   0.00   0.00     0.00   0.00   0.01     0.01   0.00   0.08
  30   1    -0.00   0.00   0.00     0.00  -0.00  -0.00     0.00  -0.00  -0.00
  31   1     0.00  -0.00   0.00    -0.00   0.00  -0.00     0.00  -0.00   0.00
  32   1    -0.09  -0.03  -0.07    -0.00   0.00  -0.00     0.00   0.00   0.00
  33   1     0.00   0.01  -0.01     0.00   0.00  -0.00     0.00  -0.00   0.00
  34   1     0.02   0.02   0.03    -0.00   0.00   0.00     0.00  -0.00  -0.00
  35   1    -0.73  -0.23  -0.57     0.01   0.00   0.00     0.00   0.00   0.00
  36   1     0.03   0.04  -0.04     0.00   0.00  -0.00    -0.00  -0.00   0.00
  37   1    -0.00   0.00   0.00     0.00  -0.00  -0.00    -0.00   0.00   0.00
  38   1     0.00   0.00  -0.00     0.00   0.00  -0.00    -0.00  -0.00   0.00
  39   1     0.00   0.01  -0.01    -0.00  -0.01   0.01    -0.00  -0.01   0.02
  40   1    -0.00  -0.00  -0.00     0.00   0.00  -0.00    -0.00  -0.00  -0.00
  41   1    -0.00   0.00   0.00    -0.00   0.00   0.01     0.00   0.00  -0.00
                    109                    110                    111
                        a                      a                      a 
 Frequencies --  3040.4694              3042.8585              3049.7087
 Red. masses --     1.7817                 1.5365                 1.6087
 Frc consts  --     0.0000                 0.0000                 0.0000
 IR Inten    --    30.6118                19.6138                16.3784
 Raman Activ --     0.0000                 0.0000                 0.0000
 Depolar     --     0.0000                 0.0000                 0.0000
 Atom AN      X      Y      Z        X      Y      Z        X      Y      Z
   1   6    -0.01   0.00   0.00     0.21  -0.06   0.03     0.00   0.00  -0.00
   2   6    -0.00   0.00   0.00     0.02  -0.00   0.00     0.00  -0.00  -0.00
   3   8     0.00   0.00  -0.00    -0.00  -0.00  -0.00     0.00   0.00  -0.00
   4  15     0.00  -0.00   0.00     0.00   0.00   0.00    -0.00  -0.00   0.00
   5  16     0.00   0.00  -0.00    -0.00  -0.00  -0.00     0.00  -0.00   0.00
   6   8     0.00  -0.00  -0.00     0.00   0.00  -0.00     0.00   0.00  -0.00
   7   6     0.00   0.00   0.00     0.00  -0.00   0.00     0.00   0.00   0.00
   8   6     0.00   0.01   0.00     0.00  -0.00  -0.00     0.00   0.00  -0.00
   9  16    -0.00   0.00  -0.00    -0.00   0.00  -0.00    -0.00   0.00  -0.00
  10   6     0.00   0.00   0.00    -0.00   0.00  -0.00    -0.00   0.00   0.00
  11  16    -0.00   0.00  -0.00     0.00   0.00  -0.00     0.00  -0.00  -0.00
  12  15    -0.00  -0.00  -0.00    -0.00   0.00   0.00     0.00   0.00  -0.00
  13  16     0.00   0.00  -0.00    -0.00   0.00  -0.00    -0.00  -0.00  -0.00
  14   8    -0.00  -0.00  -0.00     0.00  -0.00  -0.00    -0.00  -0.00   0.00
  15   6    -0.00   0.00   0.00    -0.00  -0.00   0.00     0.00   0.00  -0.02
  16   6     0.00   0.00  -0.00    -0.00  -0.00   0.00     0.04   0.07  -0.22
  17   8     0.00   0.00   0.00     0.00  -0.00  -0.00    -0.00  -0.00   0.00
  18   6     0.01   0.02  -0.02     0.00   0.00  -0.00     0.00  -0.00   0.00
  19   6     0.05   0.15  -0.21     0.00   0.00  -0.00     0.00  -0.00   0.00
  20   1     0.02  -0.01   0.00    -0.82   0.45  -0.01    -0.01   0.00  -0.00
  21   1    -0.00  -0.00  -0.00     0.03  -0.18  -0.19     0.00   0.00   0.00
  22   1    -0.00  -0.00   0.00     0.04  -0.06   0.10     0.00  -0.01   0.01
  23   1     0.00  -0.00  -0.00    -0.04   0.02   0.00    -0.00   0.00   0.00
  24   1    -0.00  -0.00  -0.00     0.00  -0.01  -0.01     0.00   0.00   0.00
  25   1     0.00  -0.00  -0.00    -0.00  -0.00  -0.00    -0.00  -0.00  -0.00
  26   1    -0.00  -0.00   0.00     0.00   0.00  -0.00    -0.00  -0.00  -0.00
  27   1    -0.00  -0.02   0.00     0.00   0.00  -0.00    -0.00  -0.00   0.00
  28   1     0.00   0.00  -0.00    -0.01  -0.00   0.00    -0.00  -0.00   0.00
  29   1    -0.00  -0.00  -0.01     0.00   0.00   0.00     0.00   0.00   0.00
  30   1     0.00  -0.00  -0.00     0.00  -0.00  -0.00     0.00  -0.00  -0.00
  31   1    -0.00   0.00  -0.00     0.00  -0.00   0.00    -0.00  -0.00   0.00
  32   1     0.00   0.00   0.00    -0.00  -0.00  -0.00     0.01   0.00   0.00
  33   1     0.00   0.00  -0.00     0.00   0.00   0.00    -0.00  -0.02   0.04
  34   1     0.00  -0.00  -0.00    -0.00  -0.00  -0.00     0.01   0.17  -0.01
  35   1    -0.01  -0.00  -0.01     0.01   0.00   0.01    -0.05  -0.00  -0.07
  36   1    -0.00  -0.01   0.02     0.00   0.00  -0.01    -0.12  -0.42   0.85
  37   1    -0.01   0.01   0.01     0.00  -0.00  -0.00    -0.00   0.00   0.00
  38   1    -0.01  -0.06   0.06    -0.00  -0.00   0.00     0.00   0.00  -0.00
  39   1    -0.16  -0.65   0.68    -0.00  -0.01   0.01     0.00   0.01  -0.01
  40   1     0.02   0.03  -0.02     0.00  -0.00  -0.00    -0.01  -0.01  -0.00
  41   1    -0.05   0.08   0.08    -0.00   0.00   0.00    -0.00   0.00   0.00
                    112                    113                    114
                        a                      a                      a 
 Frequencies --  3052.2562              3052.5327              3057.4632
 Red. masses --     1.6038                 1.6095                 1.8045
 Frc consts  --     0.0000                 0.0000                 0.0000
 IR Inten    --    14.5859                20.8173                12.1387
 Raman Activ --     0.0000                 0.0000                 0.0000
 Depolar     --     0.0000                 0.0000                 0.0000
 Atom AN      X      Y      Z        X      Y      Z        X      Y      Z
   1   6    -0.00   0.00   0.00    -0.00   0.00  -0.00    -0.00   0.00  -0.00
   2   6    -0.00   0.00   0.00    -0.00   0.00   0.00    -0.00   0.00   0.00
   3   8    -0.00  -0.00  -0.00     0.00   0.00   0.00     0.00  -0.00   0.00
   4  15    -0.00  -0.00   0.00     0.00   0.00  -0.00    -0.00  -0.00  -0.00
   5  16    -0.00   0.00  -0.00     0.00  -0.00   0.00     0.00  -0.00  -0.00
   6   8     0.00   0.00  -0.00    -0.00  -0.00   0.00    -0.00   0.00   0.00
   7   6     0.00   0.00   0.00    -0.01  -0.01  -0.01    -0.00  -0.00   0.00
   8   6     0.02   0.02   0.06    -0.07  -0.08  -0.19    -0.00  -0.00   0.00
   9  16     0.00   0.00   0.00    -0.00  -0.00  -0.00    -0.00  -0.00   0.00
  10   6    -0.00   0.00  -0.00     0.00   0.00   0.00     0.00   0.00   0.00
  11  16     0.00  -0.00  -0.00     0.00  -0.00  -0.00    -0.00  -0.00   0.00
  12  15     0.00  -0.00   0.00     0.00  -0.00   0.00     0.00   0.00   0.00
  13  16    -0.00   0.00  -0.00    -0.00   0.00  -0.00     0.00   0.00   0.00
  14   8    -0.00   0.00   0.00    -0.00  -0.00  -0.00     0.00   0.00  -0.00
  15   6     0.00  -0.00   0.00     0.00  -0.00   0.00    -0.01  -0.01   0.00
  16   6    -0.00  -0.01   0.00    -0.00  -0.00   0.00    -0.02  -0.27   0.01
  17   8     0.00   0.00  -0.00     0.00   0.00  -0.00     0.00   0.00  -0.00
  18   6     0.01  -0.01  -0.01     0.00  -0.00  -0.00    -0.00  -0.00   0.00
  19   6     0.12  -0.11  -0.15     0.04  -0.03  -0.05    -0.02  -0.02  -0.01
  20   1     0.00  -0.00   0.00     0.00  -0.00  -0.00    -0.00   0.00  -0.00
  21   1    -0.00  -0.00  -0.00     0.00  -0.00  -0.00    -0.00  -0.00  -0.00
  22   1    -0.00   0.00  -0.00     0.00  -0.00   0.00     0.00  -0.00   0.00
  23   1     0.00  -0.00  -0.00     0.00  -0.00  -0.00     0.00  -0.00  -0.00
  24   1    -0.00  -0.00  -0.00    -0.00  -0.00  -0.00    -0.00  -0.00  -0.00
  25   1    -0.00  -0.01  -0.01     0.01   0.02   0.03    -0.00   0.00   0.00
  26   1     0.00  -0.00   0.00     0.00   0.01  -0.00    -0.00   0.00  -0.00
  27   1     0.00   0.03   0.01    -0.01  -0.10  -0.02    -0.00   0.00   0.00
  28   1    -0.03  -0.01   0.03     0.09   0.02  -0.11     0.01   0.00  -0.01
  29   1    -0.06  -0.11  -0.24     0.19   0.37   0.81     0.00   0.00   0.00
  30   1     0.00  -0.00  -0.00     0.00  -0.00  -0.00     0.00   0.00  -0.00
  31   1     0.00  -0.00   0.00    -0.00   0.00  -0.00    -0.00   0.00  -0.00
  32   1    -0.00  -0.00  -0.00    -0.00  -0.00  -0.00     0.01   0.00   0.01
  33   1     0.00   0.00  -0.00     0.00   0.00  -0.00     0.00   0.01  -0.01
  34   1     0.00   0.03   0.00     0.00   0.00   0.00     0.03   0.94   0.10
  35   1     0.01   0.00   0.00     0.00   0.00   0.00     0.01  -0.03   0.02
  36   1     0.00   0.00  -0.01     0.00   0.00  -0.00     0.01   0.03  -0.14
  37   1    -0.02   0.01   0.03    -0.01   0.00   0.01     0.00  -0.00  -0.00
  38   1     0.00  -0.00   0.00    -0.00  -0.00   0.00     0.00   0.00  -0.00
  39   1     0.03   0.07  -0.11     0.01   0.02  -0.03    -0.00  -0.01   0.01
  40   1    -0.05  -0.09  -0.06    -0.01  -0.03  -0.02     0.07   0.09   0.04
  41   1    -0.40   0.40   0.71    -0.12   0.12   0.21     0.01  -0.01  -0.02
                    115                    116                    117
                        a                      a                      a 
 Frequencies --  3058.3587              3059.0289              3059.0545
 Red. masses --     1.7879                 1.7992                 1.7935
 Frc consts  --     0.0000                 0.0000                 0.0000
 IR Inten    --    10.5319                12.4226                12.4370
 Raman Activ --     0.0000                 0.0000                 0.0000
 Depolar     --     0.0000                 0.0000                 0.0000
 Atom AN      X      Y      Z        X      Y      Z        X      Y      Z
   1   6    -0.00   0.00  -0.00     0.01  -0.02   0.03    -0.05   0.12  -0.23
   2   6    -0.00   0.00  -0.00     0.00  -0.00   0.00    -0.01   0.00  -0.01
   3   8     0.00   0.00   0.00    -0.00  -0.00  -0.00     0.00  -0.00   0.00
   4  15    -0.00  -0.00  -0.00     0.00   0.00   0.00    -0.00   0.00   0.00
   5  16    -0.00   0.00   0.00    -0.00   0.00  -0.00     0.00   0.00   0.00
   6   8     0.00  -0.00   0.00    -0.00   0.00  -0.00     0.00   0.00  -0.00
   7   6     0.00   0.00  -0.00    -0.00  -0.00   0.01    -0.00  -0.00   0.00
   8   6     0.01   0.00  -0.02    -0.17  -0.05   0.19    -0.02  -0.01   0.02
   9  16     0.00  -0.00   0.00    -0.00  -0.00  -0.00     0.00  -0.00   0.00
  10   6     0.00  -0.00   0.00    -0.00   0.00  -0.00     0.00  -0.00   0.00
  11  16     0.00   0.00  -0.00    -0.00   0.00   0.00    -0.00   0.00  -0.00
  12  15    -0.00  -0.00   0.00    -0.00  -0.00  -0.00     0.00  -0.00   0.00
  13  16     0.00  -0.00  -0.00     0.00  -0.00   0.00    -0.00   0.00   0.00
  14   8     0.00   0.00  -0.00     0.00   0.00   0.00    -0.00   0.00  -0.00
  15   6    -0.00  -0.00   0.00    -0.00   0.00  -0.00     0.00   0.00   0.00
  16   6    -0.00  -0.03   0.00     0.00   0.00  -0.00    -0.00   0.00   0.00
  17   8     0.00  -0.00  -0.00     0.00  -0.00  -0.00    -0.00   0.00   0.00
  18   6     0.00   0.01   0.00     0.00   0.00   0.00    -0.00  -0.00   0.00
  19   6     0.14   0.20   0.10     0.01   0.02   0.01    -0.00  -0.00   0.00
  20   1     0.00  -0.00  -0.00    -0.02   0.01   0.00     0.08  -0.04  -0.03
  21   1    -0.00   0.00   0.00     0.00  -0.01  -0.00    -0.01   0.05   0.01
  22   1     0.00  -0.00   0.01    -0.01   0.05  -0.10     0.11  -0.44   0.83
  23   1     0.00  -0.00  -0.00    -0.00   0.00   0.00     0.01  -0.01  -0.00
  24   1     0.00   0.00   0.00     0.00  -0.00  -0.00    -0.00   0.01   0.01
  25   1     0.00   0.00   0.00    -0.00  -0.01  -0.01    -0.00  -0.00  -0.00
  26   1    -0.00  -0.00   0.00     0.00   0.02  -0.00     0.00   0.00  -0.00
  27   1     0.00  -0.00  -0.00    -0.02   0.02   0.02    -0.00   0.00   0.00
  28   1    -0.05  -0.02   0.05     0.69   0.21  -0.61     0.08   0.02  -0.07
  29   1     0.00   0.01   0.01    -0.05  -0.06  -0.09    -0.01  -0.01  -0.02
  30   1    -0.00   0.00   0.00     0.00  -0.00  -0.00    -0.00   0.00   0.00
  31   1    -0.00   0.00  -0.00     0.00  -0.00   0.00    -0.00   0.00  -0.00
  32   1     0.00   0.00   0.00     0.00   0.00   0.00    -0.00  -0.00  -0.00
  33   1     0.00   0.00  -0.00    -0.00  -0.00   0.00     0.00   0.00  -0.00
  34   1     0.00   0.11   0.01    -0.00  -0.00  -0.00    -0.00  -0.01  -0.00
  35   1     0.01  -0.00   0.01    -0.00  -0.00  -0.00     0.00   0.00   0.00
  36   1     0.00   0.01  -0.03    -0.00  -0.00   0.00     0.00   0.00  -0.01
  37   1     0.01  -0.00  -0.01     0.00  -0.00  -0.00     0.00  -0.00  -0.00
  38   1    -0.00  -0.01   0.01    -0.00  -0.00   0.00     0.00   0.00  -0.00
  39   1     0.01   0.01   0.04     0.00   0.00   0.00     0.00   0.00  -0.00
  40   1    -0.56  -0.69  -0.33    -0.05  -0.06  -0.03     0.00   0.00   0.00
  41   1     0.06  -0.02  -0.07     0.00  -0.00  -0.00     0.00  -0.00  -0.00
