
                                 *****************
                                 * O   R   C   A *
                                 *****************

                                            #,                                       
                                            ###                                      
                                            ####                                     
                                            #####                                    
                                            ######                                   
                                           ########,                                 
                                     ,,################,,,,,                         
                               ,,#################################,,                 
                          ,,##########################################,,             
                       ,#########################################, ''#####,          
                    ,#############################################,,   '####,        
                  ,##################################################,,,,####,       
                ,###########''''           ''''###############################       
              ,#####''   ,,,,##########,,,,          '''####'''          '####       
            ,##' ,,,,###########################,,,                        '##       
           ' ,,###''''                  '''############,,,                           
         ,,##''                                '''############,,,,        ,,,,,,###''
      ,#''                                            '''#######################'''  
     '                                                          ''''####''''         
             ,#######,   #######,   ,#######,      ##                                
            ,#'     '#,  ##    ##  ,#'     '#,    #''#        ,####,   ,####,        
            ##       ##  ##   ,#'  ##            #'  '#       #'       #'  '#        
            ##       ##  #######   ##           ,######,      #####,   #    #        
            '#,     ,#'  ##    ##  '#,     ,#' ,#      #,     #,   #   #,  ,#        
             '#######'   ##     ##  '#######'  #'      '#     '####' # '####'        



                #########################################################
                #                        -***-                          #
                #          Department of theory and spectroscopy        #
                #                                                       #
                #                      Frank Neese                      #
                #                                                       #
                #     Directorship, Architecture, Infrastructure        #
                #                    SHARK, DRIVERS                     #
                #        Core code/Algorithms in most modules           #
                #                                                       #
                #        Max Planck Institute fuer Kohlenforschung      #
                #                Kaiser Wilhelm Platz 1                 #
                #                 D-45470 Muelheim/Ruhr                 #
                #                      Germany                          #
                #                                                       #
                #                  All rights reserved                  #
                #                        -***-                          #
                #########################################################


                         Program Version 6.0.0  -   RELEASE  -


 With contributions from (in alphabetic order):
   Daniel Aravena         : Magnetic Suceptibility
   Michael Atanasov       : Ab Initio Ligand Field Theory (pilot matlab implementation)
   Alexander A. Auer      : GIAO ZORA, VPT2 properties, NMR spectrum
   Ute Becker             : All parallelization in ORCA, NUMFREQ, NUMCALC
   Giovanni Bistoni       : ED, misc. LED, open-shell LED, HFLD
   Martin Brehm           : Molecular dynamics
   Dmytro Bykov           : pre 5.0 version of the SCF Hessian
   Marcos Casanova-Páez   : Triplet and SCS-CIS(D). UHF-(DLPNO)-IP/EA/STEOM-CCSD. UHF-CVS-IP/STEOM-CCSD
   Vijay G. Chilkuri      : MRCI spin determinant printing, contributions to CSF-ICE
   Pauline Colinet        : FMM embedding
   Dipayan Datta          : RHF DLPNO-CCSD density
   Achintya Kumar Dutta   : EOM-CC, STEOM-CC
   Nicolas Foglia         : Exact transition moments, OPA infrastructure, MCD improvements
   Dmitry Ganyushin       : Spin-Orbit,Spin-Spin,Magnetic field MRCI
   Miquel Garcia          : C-PCM and meta-GGA Hessian, CCSD/C-PCM, Gaussian charge scheme
   Tiago L. C. Gouveia    : GS-ROHF, GS-ROCIS
   Yang Guo               : DLPNO-NEVPT2, F12-NEVPT2, CIM, IAO-localization
   Andreas Hansen         : Spin unrestricted coupled pair/coupled cluster methods
   Ingolf Harden          : AUTO-CI MPn and infrastructure 
   Benjamin Helmich-Paris : MC-RPA, TRAH-(SCF,CASSCF), AVAS, COSX integrals, SCF dyn. polar.
   Lee Huntington         : MR-EOM, pCC
   Robert Izsak           : Overlap fitted RIJCOSX, COSX-SCS-MP3, EOM
   Riya Kayal             : Wick's Theorem for AUTO-CI, AUTO-CI UHF-CCSDT
   Emily Kempfer          : AUTO-CI, RHF CISDT and CCSDT
   Christian Kollmar      : KDIIS, OOCD, Brueckner-CCSD(T), CCSD density, CASPT2, CASPT2-K, improved NEVPT2
   Axel Koslowski         : Symmetry handling
   Simone Kossmann        : Meta GGA functionals, TD-DFT gradient, OOMP2, (MP2 Hessian; deprecated post 5.0)
   Lucas Lang             : DCDCAS
   Marvin Lechner         : AUTO-CI (C++ implementation), FIC-MRCC
   Spencer Leger          : CASSCF response
   Dagmar Lenk            : GEPOL surface, SMD, ORCA-2-JSON
   Dimitrios Liakos       : Extrapolation schemes; Compound Job, initial MDCI parallelization
   Dimitrios Manganas     : Further ROCIS development; embedding schemes. LFT, Crystal Embedding
   Dimitrios Pantazis     : SARC Basis sets
   Anastasios Papadopoulos: AUTO-CI, single reference methods and gradients
   Taras Petrenko         : pre 6.0 DFT Hessian and TD-DFT gradient, (ASA, deprecated), ECA, 1-Electron XAS/XES, NRVS
   Peter Pinski           : DLPNO-MP2, DLPNO-MP2 Gradient
   Christoph Reimann      : Effective Core Potentials
   Marius Retegan         : Local ZFS, SOC
   Christoph Riplinger    : Optimizer, TS searches, QM/MM, DLPNO-CCSD(T), (RO)-DLPNO pert. Triples
   Michael Roemelt        : Original ROCIS implementation
   Masaaki Saitow         : Open-shell DLPNO-CCSD energy and density
   Barbara Sandhoefer     : DKH picture change effects
   Kantharuban Sivalingam : CASSCF convergence/infrastructure, NEVPT2 and variants, FIC-MRCI
   Bernardo de Souza      : ESD, SOC TD-DFT
   Georgi Stoychev        : AutoAux, RI-MP2 NMR, DLPNO-MP2 response, X2C
   Van Anh Tran           : RI-MP2 g-tensors
   Willem Van den Heuvel  : Paramagnetic NMR
   Zikuan Wang            : NOTCH, Electric field optimization 
   Frank Wennmohs         : Technical directorship and infrastructure
   Hang Xu                : AUTO-CI-Response properties 


 We gratefully acknowledge several colleagues who have allowed us to
 interface, adapt or use parts of their codes:
   Stefan Grimme, W. Hujo, H. Kruse, P. Pracht,  : VdW corrections, initial TS optimization,
                  C. Bannwarth, S. Ehlert,         DFT functionals, gCP, sTDA/sTD-DF
                  L. Wittmann, M. Mueller
   Ed Valeev, F. Pavosevic, A. Kumar             : LibInt (2-el integral package), F12 methods
   Garnet Chan, S. Sharma, J. Yang, R. Olivares  : DMRG
   Ulf Ekstrom                                   : XCFun DFT Library
   Mihaly Kallay                                 : mrcc  (arbitrary order and MRCC methods)
   Frank Weinhold                                : gennbo (NPA and NBO analysis)
   Simon Mueller                                 : openCOSMO-RS
   Christopher J. Cramer and Donald G. Truhlar   : smd solvation model
   Lars Goerigk                                  : TD-DFT with DH, B97 family of functionals
   V. Asgeirsson, H. Jonsson                     : NEB implementation
   FAccTs GmbH                                   : IRC, NEB, NEB-TS, DLPNO-Multilevel, CI-OPT
                                                   MM, QMMM, 2- and 3-layer-ONIOM, Crystal-QMMM,
                                                   LR-CPCM, SF, NACMEs, symmetry and pop. for TD-DFT,
                                                   nearIR, NL-DFT gradient (VV10), updates on ESD,
                                                   ML-optimized integration grids, MBIS, APM,
                                                   GOAT, DOCKER, SOLVATOR, interface openCOSMO-RS
   S Lehtola, MJT Oliveira, MAL Marques          : LibXC Library
   Liviu Ungur et al                             : ANISO software


 Your calculation uses the libint2 library for the computation of 2-el integrals
 For citations please refer to: http://libint.valeyev.net

 Your ORCA version has been built with support for libXC version: 6.2.2
 For citations please refer to: https://libxc.gitlab.io

 This ORCA versions uses:
   CBLAS   interface :  Fast vector & matrix operations
   LAPACKE interface :  Fast linear algebra routines
   SCALAPACK package :  Parallel linear algebra routines
   Shared memory     :  Shared parallel matrices
   BLAS/LAPACK       :  OpenBLAS 0.3.27  USE64BITINT DYNAMIC_ARCH NO_AFFINITY SkylakeX SINGLE_THREADED
        Core in use  :  SkylakeX
   Copyright (c) 2011-2014, The OpenBLAS Project


Your calculation utilizes the geometrical counterpoise correction gCP
Please cite in your paper:
H.Kruse, S. Grimme J.Chem.Phys., 136, (2012), 154101 
   

Your calculation utilizes the atom-pairwise dispersion correction
based on EEQ partial charges (D4)


================================================================================

----- Orbital basis set information -----
Your calculation utilizes the basis: def2-mTZVPP
   Stefan Grimme, Andreas Hansen, Sebastian Ehlert, and Jan-Michael Mewes 
   J. Chem. Phys. 154, 064103 (2021). DOI: 10.1063/5.0040021

----- AuxJ basis set information -----
Your calculation utilizes the auxiliary basis: def2/J
   F. Weigend, Phys. Chem. Chem. Phys. 8, 1057 (2006).

================================================================================
                                        WARNINGS
                       Please study these warnings very carefully!
================================================================================

Using LibXC functional ID 497 : Re-regularized SCAN exchange by Furness et al
[ 1]  J. W. Furness, A. D. Kaplan, J. Ning, J. P. Perdew, and J. Sun.,  J. Phys. Chem. Lett. 11, 8208-8215 (2020)
[ 2]  J. W. Furness, A. D. Kaplan, J. Ning, J. P. Perdew, and J. Sun.,  J. Phys. Chem. Lett. 11, 9248-9248 (2020)
Using LibXC functional ID 498 : Re-regularized SCAN correlation by Furness et al
[ 1]  J. W. Furness, A. D. Kaplan, J. Ning, J. P. Perdew, and J. Sun.,  J. Phys. Chem. Lett. 11, 8208-8215 (2020)
[ 2]  J. W. Furness, A. D. Kaplan, J. Ning, J. P. Perdew, and J. Sun.,  J. Phys. Chem. Lett. 11, 9248-9248 (2020)
Using LibXC functional ID 497 : Re-regularized SCAN exchange by Furness et al
[ 1]  J. W. Furness, A. D. Kaplan, J. Ning, J. P. Perdew, and J. Sun.,  J. Phys. Chem. Lett. 11, 8208-8215 (2020)
[ 2]  J. W. Furness, A. D. Kaplan, J. Ning, J. P. Perdew, and J. Sun.,  J. Phys. Chem. Lett. 11, 9248-9248 (2020)
Using LibXC functional ID 498 : Re-regularized SCAN correlation by Furness et al
[ 1]  J. W. Furness, A. D. Kaplan, J. Ning, J. P. Perdew, and J. Sun.,  J. Phys. Chem. Lett. 11, 8208-8215 (2020)
[ 2]  J. W. Furness, A. D. Kaplan, J. Ning, J. P. Perdew, and J. Sun.,  J. Phys. Chem. Lett. 11, 9248-9248 (2020)

================================================================================
                                       INPUT FILE
================================================================================
NAME = sp_gas.inp
|  1> ! r2scan-3c def2/J RI DEFGRID2 scfconv6 printgap
|  2> %output
|  3>     printlevel normal
|  4> end
|  5> * xyz 0 1
|  6> C -2.5935547587 1.4078792021 -5.3376e-06
|  7> C -1.6080802511 0.2897329049 -3.00013e-05
|  8> C -1.8690545735 -1.0487060832 -2.60489e-05
|  9> N -0.7010197991 -1.7654625209 0.0001867485
| 10> C 0.3469799955 -0.8949464187 -7.3038e-05
| 11> C -0.1847770178 0.4195560554 -3.47305e-05
| 12> C 0.6850900871 1.5097321786 3.18141e-05
| 13> C 2.0411350493 1.2723470992 1.91677e-05
| 14> C 2.5515892225 -0.0294654687 -1.6627e-06
| 15> C 1.7173424363 -1.1264303988 -3.46722e-05
| 16> H -3.6079823354 1.0179989051 0.0005316544
| 17> H -2.4578465475 2.0351976747 0.8804215258
| 18> H -2.4585363739 2.0346168186 -0.8809613751
| 19> H -2.8177053583 -1.5500862353 7.49579e-05
| 20> H -0.6324338292 -2.768353163 -0.0009211898
| 21> H 0.2988831379 2.5184255194 -1.44169e-05
| 22> H 2.7313036903 2.1037817003 6.86864e-05
| 23> H 3.6221902378 -0.1732852618 5.98129e-05
| 24> H 2.1144464307 -2.1305706373 -1.36162e-05
| 25> *
| 26> 
| 27>                          ****END OF INPUT****
================================================================================

                       ****************************
                       * Single Point Calculation *
                       ****************************

---------------------------------
CARTESIAN COORDINATES (ANGSTROEM)
---------------------------------
  C     -2.593555    1.407879   -0.000005
  C     -1.608080    0.289733   -0.000030
  C     -1.869055   -1.048706   -0.000026
  N     -0.701020   -1.765463    0.000187
  C      0.346980   -0.894946   -0.000073
  C     -0.184777    0.419556   -0.000035
  C      0.685090    1.509732    0.000032
  C      2.041135    1.272347    0.000019
  C      2.551589   -0.029465   -0.000002
  C      1.717342   -1.126430   -0.000035
  H     -3.607982    1.017999    0.000532
  H     -2.457847    2.035198    0.880422
  H     -2.458536    2.034617   -0.880961
  H     -2.817705   -1.550086    0.000075
  H     -0.632434   -2.768353   -0.000921
  H      0.298883    2.518426   -0.000014
  H      2.731304    2.103782    0.000069
  H      3.622190   -0.173285    0.000060
  H      2.114446   -2.130571   -0.000014

----------------------------
CARTESIAN COORDINATES (A.U.)
----------------------------
  NO LB      ZA    FRAG     MASS         X           Y           Z
   0 C     6.0000    0    12.011   -4.901108    2.660506   -0.000010
   1 C     6.0000    0    12.011   -3.038831    0.547516   -0.000057
   2 C     6.0000    0    12.011   -3.532001   -1.981767   -0.000049
   3 N     7.0000    0    14.007   -1.324735   -3.336241    0.000353
   4 C     6.0000    0    12.011    0.655697   -1.691204   -0.000138
   5 C     6.0000    0    12.011   -0.349178    0.792846   -0.000066
   6 C     6.0000    0    12.011    1.294633    2.852980    0.000060
   7 C     6.0000    0    12.011    3.857186    2.404388    0.000036
   8 C     6.0000    0    12.011    4.821805   -0.055682   -0.000003
   9 C     6.0000    0    12.011    3.245307   -2.128645   -0.000066
  10 H     1.0000    0     1.008   -6.818099    1.923739    0.001005
  11 H     1.0000    0     1.008   -4.644657    3.845966    1.663756
  12 H     1.0000    0     1.008   -4.645960    3.844869   -1.664776
  13 H     1.0000    0     1.008   -5.324691   -2.929238    0.000142
  14 H     1.0000    0     1.008   -1.195127   -5.231429   -0.001741
  15 H     1.0000    0     1.008    0.564807    4.759135   -0.000027
  16 H     1.0000    0     1.008    5.161416    3.975571    0.000130
  17 H     1.0000    0     1.008    6.844948   -0.327462    0.000113
  18 H     1.0000    0     1.008    3.995725   -4.026195   -0.000026

--------------------------------
INTERNAL COORDINATES (ANGSTROEM)
--------------------------------
 C      0   0   0     0.000000000000     0.00000000     0.00000000
 C      1   0   0     1.490439917501     0.00000000     0.00000000
 C      2   1   0     1.363644573133   127.57543635     0.00000000
 N      3   2   1     1.370417845212   110.50173915   180.01076044
 C      4   3   2     1.362388315114   108.75036893     0.00000000
 C      5   4   3     1.417985288032   107.68969825     0.00000000
 C      6   5   4     1.394687335646   119.38827433   179.98577292
 C      7   6   5     1.376666123499   118.65745577     0.00000000
 C      8   7   6     1.398313064129   121.34007021     0.00000000
 C      9   8   7     1.378150847783   121.33618787     0.00000000
 H      1   2   3     1.086770556612   110.36770157     0.02890788
 H      1   2   3     1.089539648865   110.46305585   120.40155057
 H      1   2   3     1.089547403364   110.46240968   239.65560615
 H      3   2   1     1.072995982576   128.89064279     0.00000000
 H      4   3   2     1.005233755306   125.44730193   180.08070197
 H      7   6   5     1.080100951542   120.46236658   179.99531015
 H      8   7   6     1.080562932632   119.76644152   179.99992279
 H      9   8   7     1.080217881091   119.06171583   180.00430119
 H     10   9   8     1.079809798708   121.16970157   180.00229959

---------------------------
INTERNAL COORDINATES (A.U.)
---------------------------
 C      0   0   0     0.000000000000     0.00000000     0.00000000
 C      1   0   0     2.816523263141     0.00000000     0.00000000
 C      2   1   0     2.576914787229   127.57543635     0.00000000
 N      3   2   1     2.589714416489   110.50173915   180.01076044
 C      4   3   2     2.574540803621   108.75036893     0.00000000
 C      5   4   3     2.679603856311   107.68969825     0.00000000
 C      6   5   4     2.635577106819   119.38827433   179.98577292
 C      7   6   5     2.601521951260   118.65745577     0.00000000
 C      8   7   6     2.642428740688   121.34007021     0.00000000
 C      9   8   7     2.604327673541   121.33618787     0.00000000
 H      1   2   3     2.053698722406   110.36770157     0.02890788
 H      1   2   3     2.058931548403   110.46305585   120.40155057
 H      1   2   3     2.058946202283   110.46240968   239.65560615
 H      3   2   1     2.027668549866   128.89064279     0.00000000
 H      4   3   2     1.899616498101   125.44730193   180.08070197
 H      7   6   5     2.041094995402   120.46236658   179.99531015
 H      8   7   6     2.041968013141   119.76644152   179.99992279
 H      9   8   7     2.041315960226   119.06171583   180.00430119
 H     10   9   8     2.040544796283   121.16970157   180.00229959

---------------------
BASIS SET INFORMATION
---------------------
There are 3 groups of distinct atoms

 Group   1 Type C   : 11s6p1d contracted to 5s3p1d pattern {62111/411/1}
 Group   2 Type N   : 11s6p2d contracted to 5s3p2d pattern {62111/411/11}
 Group   3 Type H   : 4s1p contracted to 2s1p pattern {31/1}

Atom   0C    basis set group =>   1
Atom   1C    basis set group =>   1
Atom   2C    basis set group =>   1
Atom   3N    basis set group =>   2
Atom   4C    basis set group =>   1
Atom   5C    basis set group =>   1
Atom   6C    basis set group =>   1
Atom   7C    basis set group =>   1
Atom   8C    basis set group =>   1
Atom   9C    basis set group =>   1
Atom  10H    basis set group =>   3
Atom  11H    basis set group =>   3
Atom  12H    basis set group =>   3
Atom  13H    basis set group =>   3
Atom  14H    basis set group =>   3
Atom  15H    basis set group =>   3
Atom  16H    basis set group =>   3
Atom  17H    basis set group =>   3
Atom  18H    basis set group =>   3
---------------------------------
AUXILIARY/J BASIS SET INFORMATION
---------------------------------
There are 3 groups of distinct atoms

 Group   1 Type C   : 12s5p4d2f1g contracted to 6s4p3d1f1g pattern {711111/2111/211/2/1}
 Group   2 Type N   : 12s5p4d2f1g contracted to 6s4p3d1f1g pattern {711111/2111/211/2/1}
 Group   3 Type H   : 5s2p1d contracted to 3s1p1d pattern {311/2/1}

Atom   0C    basis set group =>   1
Atom   1C    basis set group =>   1
Atom   2C    basis set group =>   1
Atom   3N    basis set group =>   2
Atom   4C    basis set group =>   1
Atom   5C    basis set group =>   1
Atom   6C    basis set group =>   1
Atom   7C    basis set group =>   1
Atom   8C    basis set group =>   1
Atom   9C    basis set group =>   1
Atom  10H    basis set group =>   3
Atom  11H    basis set group =>   3
Atom  12H    basis set group =>   3
Atom  13H    basis set group =>   3
Atom  14H    basis set group =>   3
Atom  15H    basis set group =>   3
Atom  16H    basis set group =>   3
Atom  17H    basis set group =>   3
Atom  18H    basis set group =>   3

Checking for AutoStart:
The File: sp_gas.gbw exists
Trying to determine its content:
     ... Fine, the file contains calculation information
     ... Fine, the calculation information was read
     ... Fine, the file contains a basis set
     ... Fine, the basis set was read
     ... Fine, the file contains a geometry
     ... Fine, the geometry was read
     ... Fine, the file contains a set of orbitals
     ... Fine, the orbitals can be read
     => possible old guess file was deleted
     => GBW file was renamed to GES file
     => GES file is set as startup file
     => Guess is set to MORead
     ... now leaving AutoStart

------------------------------------------------------------------------------
                             ORCA STARTUP CALCULATIONS
                           -- RI-GTO INTEGRALS CHOSEN --
------------------------------------------------------------------------------
------------------------------------------------------------------------------
                   ___                                                        
                  /   \      - P O W E R E D   B Y -                         
                 /     \                                                     
                 |  |  |   _    _      __       _____    __    __             
                 |  |  |  | |  | |    /  \     |  _  \  |  |  /  |          
                  \  \/   | |  | |   /    \    | | | |  |  | /  /          
                 / \  \   | |__| |  /  /\  \   | |_| |  |  |/  /          
                |  |  |   |  __  | /  /__\  \  |    /   |      \           
                |  |  |   | |  | | |   __   |  |    \   |  |\   \          
                \     /   | |  | | |  |  |  |  | |\  \  |  | \   \       
                 \___/    |_|  |_| |__|  |__|  |_| \__\ |__|  \__/        
                                                                              
                      - O R C A' S   B I G   F R I E N D -                    
                                      &                                       
                       - I N T E G R A L  F E E D E R -                       
                                                                              
 v1 FN, 2020, v2 2021, v3 2022-2024                                           
------------------------------------------------------------------------------


----------------------
SHARK INTEGRAL PACKAGE
----------------------

Number of atoms                             ...     19
Number of basis functions                   ...    240
Number of shells                            ...    118
Maximum angular momentum                    ...      2
Integral batch strategy                     ... SHARK/LIBINT Hybrid
RI-J (if used) integral strategy            ... SPLIT-RIJ (Revised 2003 algorithm where possible)
Printlevel                                  ...      1
Contraction scheme used                     ... SEGMENTED contraction
Prescreening option                         ... SCHWARTZ
   Thresh                                   ... 1.000e-10
   Tcut                                     ... 1.000e-11
   Tpresel                                  ... 1.000e-11 
Coulomb Range Separation                    ... NOT USED
Exchange Range Separation                   ... NOT USED
Multipole approximations                    ... NOT USED
Finite Nucleus Model                        ... NOT USED
CABS basis                                  ... NOT available
Auxiliary Coulomb fitting basis             ... AVAILABLE
   # of basis functions in Aux-J            ...    589
   # of shells in Aux-J                     ...    195
   Maximum angular momentum in Aux-J        ...      4
Auxiliary J/K fitting basis                 ... NOT available
Auxiliary Correlation fitting basis         ... NOT available
Auxiliary 'external' fitting basis          ... NOT available

Checking pre-screening integrals            ... done (  0.0 sec) Dimension = 118
Check shell pair data                       ... done (  0.0 sec)
Shell pair information
Shell pair cut-off parameter TPreSel        ...   1.0e-11
Total number of shell pairs                 ...      7021
Shell pairs after pre-screening             ...      6216
Total number of primitive shell pairs       ...     25898
Primitive shell pairs kept                  ...     15997
          la=0 lb=0:   2014 shell pairs
          la=1 lb=0:   2363 shell pairs
          la=1 lb=1:    717 shell pairs
          la=2 lb=0:    665 shell pairs
          la=2 lb=1:    393 shell pairs
          la=2 lb=2:     64 shell pairs

Calculating one electron integrals          ... done (  0.0 sec)
Calculating RI/J V-Matrix + Cholesky decomp.... done (  0.5 sec)
Calculating Nuclear repulsion               ... done (  0.0 sec) ENN=    486.818311865135 Eh

Diagonalization of the overlap matrix:
Smallest eigenvalue                        ... 2.353e-05
Time for diagonalization                   ...    0.005 sec
Threshold for overlap eigenvalues          ... 1.000e-07
Number of eigenvalues below threshold      ... 0
Time for construction of square roots      ...    0.018 sec
Total time needed                          ...    0.120 sec

-------------------
DFT GRID GENERATION
-------------------

General Integration Accuracy     IntAcc      ... 4.388
Radial Grid Type                 RadialGrid  ... OptM3 with GC (2021)
Angular Grid (max. ang.)         AngularGrid ... 4 (Lebedev-302)
Angular grid pruning method      GridPruning ... 4 (adaptive)
Weight generation scheme         WeightScheme... mBecke (2022)
Basis function cutoff            BFCut       ... 1.0000e-10
Integration weight cutoff        WCut        ... 1.0000e-14
Partially contracted basis set               ... off
Rotationally invariant grid construction     ... off
Angular grids for H and He will be reduced by one unit

Total number of grid points                  ...    88840
Total number of batches                      ...     1396
Average number of points per batch           ...       63
Average number of grid points per atom       ...     4676
Initializing property integral containers    ... done (  0.0 sec)

SHARK setup successfully completed in   3.1 seconds

Maximum memory used throughout the entire STARTUP-calculation: 40.2 MB
-------------------------------------------------------------------------------
                                 ORCA GUESS
                   Start orbitals & Density for SCF / CASSCF
-------------------------------------------------------------------------------

------------
SCF SETTINGS
------------
Hamiltonian:
 Density Functional     Method          .... DFT(GTOs)
  Functional kind                       .... Exchange
  Functional name                       .... Re-regularized SCAN exchange by Furness et al
  Functional family                     .... MGGA
  Functional refs                              
    [ 0] J. W. Furness, A. D. Kaplan, J. Ning, J. P. Perdew, and J. Sun.,  J. Phys. Chem. Lett. 11, 8208-8215 (2020), doi: 10.1021/acs.jpclett.0c02405
    [ 1] J. W. Furness, A. D. Kaplan, J. Ning, J. P. Perdew, and J. Sun.,  J. Phys. Chem. Lett. 11, 9248-9248 (2020), doi: 10.1021/acs.jpclett.0c03077
  Functional external parameters        .... 6
    Parameter  0 _c1        =  6.670000e-01 : c1 parameter        
    Parameter  1 _c2        =  8.000000e-01 : c2 parameter        
    Parameter  2 _d         =  1.240000e+00 : d parameter         
    Parameter  3 _k1        =  6.500000e-02 : k1 parameter        
    Parameter  4 _eta       =  1.000000e-03 : eta parameter       
    Parameter  5 _dp2       =  3.610000e-01 : dp2 parameter       
  Functional kind                       .... Correlation
  Functional name                       .... Re-regularized SCAN correlation by Furness et al
  Functional family                     .... MGGA
  Functional refs                              
    [ 0] J. W. Furness, A. D. Kaplan, J. Ning, J. P. Perdew, and J. Sun.,  J. Phys. Chem. Lett. 11, 8208-8215 (2020), doi: 10.1021/acs.jpclett.0c02405
    [ 1] J. W. Furness, A. D. Kaplan, J. Ning, J. P. Perdew, and J. Sun.,  J. Phys. Chem. Lett. 11, 9248-9248 (2020), doi: 10.1021/acs.jpclett.0c03077
  Functional external parameters        .... 1
    Parameter  0 _eta       =  1.000000e-03 : Regularization parameter
 Gradients option       PostSCFGGA      .... off
 RI-approximation to the Coulomb term is turned on
   Number of AuxJ basis functions       .... 589


General Settings:
 Integral files         IntName         .... sp_gas
 Hartree-Fock type      HFTyp           .... RHF
 Total Charge           Charge          ....    0
 Multiplicity           Mult            ....    1
 Number of Electrons    NEL             ....   70
 Basis Dimension        Dim             ....  240
 Nuclear Repulsion      ENuc            ....    486.8183118651 Eh

Convergence Acceleration:
 AO-DIIS                CNVDIIS         .... on
   Start iteration      DIISMaxIt       ....    12
   Startup error        DIISStart       ....  0.200000
   # of expansion vecs  DIISMaxEq       ....     5
   Bias factor          DIISBfac        ....   1.050
   Max. coefficient     DIISMaxC        ....  10.000
 MO-DIIS                CNVKDIIS        .... off
 Trust-Rad. Augm. Hess. CNVTRAH         .... auto
   Auto Start mean grad. ratio tolernc. ....  1.125000
   Auto Start start iteration           ....     1
   Auto Start num. interpolation iter.  ....    10
   Max. Number of Micro iterations      ....    24
   Max. Number of Macro iterations      .... Maxiter - #DIIS iter
   Number of Davidson start vectors     ....     2
   Converg. threshold    (grad. norm)   ....   3.330e-04
   Grad. Scal. Fac. for Micro threshold ....   0.100
   Minimum threshold for Micro iter.    ....   1.000e-02
   NR start threshold (gradient norm)   ....   1.000e-04
   Initial trust radius                 ....   0.400
   Minimum AH scaling param. (alpha)    ....   1.000
   Maximum AH scaling param. (alpha)    .... 1000.000
   Quad. conv. algorithm                .... NR
   White noise on init. David. guess    .... on
   Maximum white noise                  ....   0.010
   Pseudo random numbers                .... off
   Inactive MOs                         .... canonical
   Orbital update algorithm             .... Taylor
   Preconditioner                       .... Diag
   Full preconditioner red. dimension   ....   250
   COSX micro iterations for RIJONX calc.... off
 SOSCF                  CNVSOSCF        .... on
   Start iteration      SOSCFMaxIt      ....   150
   Startup grad/error   SOSCFStart      ....  0.003300
   Hessian update       SOSCFHessUp     .... L-BFGS
 Level Shifting         CNVShift        .... on
   Level shift para.    LevelShift      ....    0.2500
   Turn off err/grad.   ShiftErr        ....    0.0010
 Zerner damping         CNVZerner       .... off
 Static damping         CNVDamp         .... on
   Fraction old density DampFac         ....    0.7000
   Max. Damping (<1)    DampMax         ....    0.9800
   Min. Damping (>=0)   DampMin         ....    0.0000
   Turn off err/grad.   DampErr         ....    0.1000

SCF Procedure:
 Maximum # iterations   MaxIter         ....   125
 SCF integral mode      SCFMode         .... Direct
   Integral package                     .... SHARK and LIBINT hybrid scheme
 Reset frequency        DirectResetFreq ....    20
 Integral Threshold     Thresh          ....  1.000e-10 Eh
 Primitive CutOff       TCut            ....  1.000e-11 Eh

Convergence Tolerance:
 Convergence Check Mode ConvCheckMode   .... Total+1el-Energy
 Convergence forced     ConvForced      .... 0
 Energy Change          TolE            ....  1.000e-06 Eh
 1-El. energy change                    ....  1.000e-03 Eh
 Orbital Gradient       TolG            ....  3.330e-04
 Orbital Rotation angle TolX            ....  3.330e-04
 DIIS Error             TolErr          ....  1.000e-06

---------------------
INITIAL GUESS: MOREAD
---------------------
Guess MOs are being read from file: sp_gas.ges
Input Geometry matches current geometry (good)
Atom 0: N(Shells)= 9 and 6 - projection required
Input basis set needs projection
NBasis(read)= 158
NBasis(calc)= 240
Basis set overlap was calculated
Using GuessMode=FMatrix for the initial guess
C*T matrix was formed
Effective Fockian was calculated
Effective Fockian was diagonalized
Initial density was built
                      ------------------
                      INITIAL GUESS DONE (   0.1 sec)
                      ------------------
             **** ENERGY FILE WAS UPDATED (sp_gas.en.tmp) ****
Finished Guess after   0.6 sec
Maximum memory used throughout the entire GUESS-calculation: 17.6 MB

-------------------------------------------------------------------------------------------
                                      ORCA LEAN-SCF
                              memory conserving SCF solver
-------------------------------------------------------------------------------------------

----------------------------------------D-I-I-S--------------------------------------------
Iteration    Energy (Eh)           Delta-E    RMSDP     MaxDP     DIISErr   Damp  Time(sec)
-------------------------------------------------------------------------------------------
               ***  Starting incremental Fock matrix formation  ***
    1    -402.8419840994605465     0.00e+00  1.89e-02  7.38e-01  4.23e-01  0.700   3.9
    2    -402.8969030952022194    -5.49e-02  1.44e-02  5.63e-01  2.98e-01  0.700   7.3
    3    -402.9356648532071858    -3.88e-02  1.03e-02  4.01e-01  2.09e-01  0.700   7.0
                               ***Turning on AO-DIIS***
    4    -402.9628635945155111    -2.72e-02  7.25e-03  2.82e-01  1.46e-01  0.700   5.7
    5    -402.9819308541883629    -1.91e-02  5.08e-03  1.97e-01  1.02e-01  0.700   4.7
    6    -402.9953004018965430    -1.34e-02  3.55e-03  1.38e-01  7.13e-02  0.700   4.3
    7    -403.0046696018858938    -9.37e-03  8.30e-03  3.22e-01  5.00e-02  0.000   6.4
                              *** Initializing SOSCF ***
---------------------------------------S-O-S-C-F--------------------------------------
Iteration    Energy (Eh)           Delta-E    RMSDP     MaxDP     MaxGrad    Time(sec)
--------------------------------------------------------------------------------------
    8    -403.0265615361580558    -2.19e-02  1.86e-05  5.15e-04  4.62e-04     6.6
               *** Restarting incremental Fock matrix formation ***
    9    -403.0265615693951986    -3.32e-08  2.57e-05  7.41e-04  1.50e-04     4.4
   10    -403.0265581392833383     3.43e-06  1.72e-05  5.14e-04  4.13e-04     3.7
   11    -403.0265623497164142    -4.21e-06  9.56e-06  2.97e-04  5.55e-05     4.6
                  *** Gradient check signals convergence ***

               *****************************************************
               *                     SUCCESS                       *
               *           SCF CONVERGED AFTER  11 CYCLES          *
               *****************************************************

             **** ENERGY FILE WAS UPDATED (sp_gas.en.tmp) ****

----------------
TOTAL SCF ENERGY
----------------

Total Energy       :       -403.02656234971641 Eh          -10966.91031 eV

Components:
Nuclear Repulsion  :        486.81831186513466 Eh           13246.99973 eV
Electronic Energy  :       -889.84487421485107 Eh          -24213.91004 eV
One Electron Energy:      -1508.40272561218012 Eh          -41045.72489 eV
Two Electron Energy:        618.55785139732905 Eh           16831.81485 eV

Virial components:
Potential Energy   :       -804.48080996627664 Eh          -21891.03576 eV
Kinetic Energy     :        401.45424761656028 Eh           10924.12545 eV
Virial Ratio       :          2.00391654775729

DFT components:
N(Alpha)           :       34.999968833919 electrons
N(Beta)            :       34.999968833919 electrons
N(Total)           :       69.999937667838 electrons
E(X)               :      -56.793489995475 Eh       
E(C)               :       -2.269652937113 Eh       
E(XC)              :      -59.063142932588 Eh       

---------------
SCF CONVERGENCE
---------------

  Last Energy change         ...    4.2104e-06  Tolerance :   1.0000e-06
  Last MAX-Density change    ...    2.9735e-04  Tolerance :   1.0000e-05
  Last RMS-Density change    ...    9.5630e-06  Tolerance :   1.0000e-06
  Last DIIS Error            ...    4.6218e-04  Tolerance :   1.0000e-06
  Last Orbital Gradient      ...    5.5549e-05  Tolerance :   3.3300e-04
  Last Orbital Rotation      ...    3.0103e-04  Tolerance :   3.3300e-04


----------------
ORBITAL ENERGIES
----------------

  NO   OCC          E(Eh)            E(eV) 
   0   2.0000     -14.202969      -386.4824 
   1   2.0000     -10.060376      -273.7568 
   2   2.0000     -10.056605      -273.6541 
   3   2.0000     -10.029729      -272.9228 
   4   2.0000     -10.024894      -272.7912 
   5   2.0000     -10.024746      -272.7872 
   6   2.0000     -10.024696      -272.7858 
   7   2.0000     -10.023707      -272.7589 
   8   2.0000     -10.023333      -272.7488 
   9   2.0000     -10.019217      -272.6368 
  10   2.0000      -0.950348       -25.8603 
  11   2.0000      -0.806830       -21.9550 
  12   2.0000      -0.764378       -20.7998 
  13   2.0000      -0.703386       -19.1401 
  14   2.0000      -0.694442       -18.8967 
  15   2.0000      -0.658921       -17.9302 
  16   2.0000      -0.590293       -16.0627 
  17   2.0000      -0.558697       -15.2029 
  18   2.0000      -0.526161       -14.3176 
  19   2.0000      -0.505538       -13.7564 
  20   2.0000      -0.452199       -12.3050 
  21   2.0000      -0.437478       -11.9044 
  22   2.0000      -0.406749       -11.0682 
  23   2.0000      -0.403761       -10.9869 
  24   2.0000      -0.396549       -10.7906 
  25   2.0000      -0.378146       -10.2899 
  26   2.0000      -0.369583       -10.0569 
  27   2.0000      -0.358406        -9.7527 
  28   2.0000      -0.343590        -9.3495 
  29   2.0000      -0.315961        -8.5977 
  30   2.0000      -0.309822        -8.4307 
  31   2.0000      -0.297511        -8.0957 
  32   2.0000      -0.249847        -6.7987 
  33   2.0000      -0.203529        -5.5383 
  34   2.0000      -0.182098        -4.9551 
  35   0.0000      -0.033595        -0.9142 
  36   0.0000       0.002420         0.0658 
  37   0.0000       0.043459         1.1826 
  38   0.0000       0.072164         1.9637 
  39   0.0000       0.088673         2.4129 
  40   0.0000       0.105114         2.8603 
  41   0.0000       0.110394         3.0040 
  42   0.0000       0.124998         3.4014 
  43   0.0000       0.138695         3.7741 
  44   0.0000       0.147633         4.0173 
  45   0.0000       0.150512         4.0957 
*Only the first 10 virtual orbitals were printed.

                    ********************************
                    * MULLIKEN POPULATION ANALYSIS *
                    ********************************

-----------------------
MULLIKEN ATOMIC CHARGES
-----------------------
   0 C :   -0.593800
   1 C :    0.086671
   2 C :   -0.207307
   3 N :   -0.048857
   4 C :    0.107072
   5 C :    0.230427
   6 C :   -0.306751
   7 C :   -0.164109
   8 C :   -0.146216
   9 C :   -0.378447
  10 H :    0.148043
  11 H :    0.158684
  12 H :    0.158712
  13 H :    0.137500
  14 H :    0.245153
  15 H :    0.144154
  16 H :    0.143224
  17 H :    0.145471
  18 H :    0.140376
Sum of atomic charges:    0.0000000

--------------------------------
MULLIKEN REDUCED ORBITAL CHARGES
--------------------------------
  0 C s       :     3.422517  s :     3.422517
      pz      :     1.091055  p :     3.142978
      px      :     1.033992
      py      :     1.017931
      dz2     :     0.004960  d :     0.028305
      dxz     :     0.001672
      dyz     :     0.009167
      dx2y2   :     0.005483
      dxy     :     0.007023

  1 C s       :     3.123341  s :     3.123341
      pz      :     1.056746  p :     2.742039
      px      :     0.863264
      py      :     0.822029
      dz2     :     0.003754  d :     0.047949
      dxz     :     0.006076
      dyz     :     0.008605
      dx2y2   :     0.017734
      dxy     :     0.011779

  2 C s       :     3.245098  s :     3.245098
      pz      :     1.060494  p :     2.912021
      px      :     0.925461
      py      :     0.926067
      dz2     :     0.004203  d :     0.050188
      dxz     :     0.006029
      dyz     :     0.010065
      dx2y2   :     0.011662
      dxy     :     0.018229

  3 N s       :     3.284980  s :     3.284980
      pz      :     1.602413  p :     3.651945
      px      :     0.964389
      py      :     1.085143
      dz2     :     0.004604  d :     0.111932
      dxz     :     0.021896
      dyz     :     0.019771
      dx2y2   :     0.043787
      dxy     :     0.021873

  4 C s       :     3.169814  s :     3.169814
      pz      :     0.979178  p :     2.660611
      px      :     0.879381
      py      :     0.802052
      dz2     :     0.004737  d :     0.062503
      dxz     :     0.011535
      dyz     :     0.009071
      dx2y2   :     0.015346
      dxy     :     0.021813

  5 C s       :     3.126541  s :     3.126541
      pz      :     1.026294  p :     2.594497
      px      :     0.752892
      py      :     0.815311
      dz2     :     0.003965  d :     0.048535
      dxz     :     0.008267
      dyz     :     0.006038
      dx2y2   :     0.015659
      dxy     :     0.014607

  6 C s       :     3.267917  s :     3.267917
      pz      :     1.014808  p :     3.000462
      px      :     0.951988
      py      :     1.033666
      dz2     :     0.003325  d :     0.038373
      dxz     :     0.007034
      dyz     :     0.002901
      dx2y2   :     0.011923
      dxy     :     0.013189

  7 C s       :     3.172306  s :     3.172306
      pz      :     1.020514  p :     2.954263
      px      :     0.957248
      py      :     0.976501
      dz2     :     0.003294  d :     0.037541
      dxz     :     0.005430
      dyz     :     0.004105
      dx2y2   :     0.011382
      dxy     :     0.013330

  8 C s       :     3.175023  s :     3.175023
      pz      :     1.014247  p :     2.933419
      px      :     1.014190
      py      :     0.904982
      dz2     :     0.003312  d :     0.037773
      dxz     :     0.002342
      dyz     :     0.007574
      dx2y2   :     0.013011
      dxy     :     0.011535

  9 C s       :     3.257496  s :     3.257496
      pz      :     1.050700  p :     3.083043
      px      :     0.982414
      py      :     1.049929
      dz2     :     0.003411  d :     0.037908
      dxz     :     0.006911
      dyz     :     0.003150
      dx2y2   :     0.013825
      dxy     :     0.010612

 10 H s       :     0.833671  s :     0.833671
      pz      :     0.003756  p :     0.018287
      px      :     0.010180
      py      :     0.004351

 11 H s       :     0.823052  s :     0.823052
      pz      :     0.008477  p :     0.018264
      px      :     0.003669
      py      :     0.006118

 12 H s       :     0.823024  s :     0.823024
      pz      :     0.008482  p :     0.018264
      px      :     0.003668
      py      :     0.006113

 13 H s       :     0.841662  s :     0.841662
      pz      :     0.005150  p :     0.020838
      px      :     0.011008
      py      :     0.004680

 14 H s       :     0.722135  s :     0.722135
      pz      :     0.009519  p :     0.032711
      px      :     0.003976
      py      :     0.019216

 15 H s       :     0.836117  s :     0.836117
      pz      :     0.004361  p :     0.019729
      px      :     0.004267
      py      :     0.011101

 16 H s       :     0.837191  s :     0.837191
      pz      :     0.004459  p :     0.019584
      px      :     0.006728
      py      :     0.008397

 17 H s       :     0.834921  s :     0.834921
      pz      :     0.004428  p :     0.019608
      px      :     0.011886
      py      :     0.003294

 18 H s       :     0.839828  s :     0.839828
      pz      :     0.004553  p :     0.019796
      px      :     0.004494
      py      :     0.010749


------------------------
MULLIKEN OVERLAP CHARGES
------------------------
B(  0-C ,  1-C ) :   0.3338 B(  0-C ,  2-C ) :  -0.1644 B(  0-C ,  4-C ) :   0.0506 
B(  0-C ,  5-C ) :  -0.0982 B(  0-C , 10-H ) :   0.8492 B(  0-C , 11-H ) :   0.8491 
B(  0-C , 12-H ) :   0.8491 B(  1-C ,  2-C ) :   0.5481 B(  1-C ,  3-N ) :  -0.3178 
B(  1-C ,  5-C ) :   0.5805 B(  1-C ,  6-C ) :  -0.5831 B(  1-C ,  7-C ) :   0.0986 
B(  1-C ,  9-C ) :   0.1125 B(  1-C , 10-H ) :  -0.1156 B(  1-C , 11-H ) :  -0.1022 
B(  1-C , 12-H ) :  -0.1023 B(  2-C ,  3-N ) :   0.8566 B(  2-C ,  4-C ) :  -0.6066 
B(  2-C ,  5-C ) :   0.0985 B(  2-C ,  6-C ) :   0.1463 B(  2-C , 13-H ) :   0.7495 
B(  2-C , 14-H ) :  -0.1083 B(  3-N ,  4-C ) :   0.8004 B(  3-N ,  5-C ) :  -0.1270 
B(  3-N ,  9-C ) :  -0.0785 B(  3-N , 13-H ) :  -0.0585 B(  3-N , 14-H ) :   0.7177 
B(  4-C ,  5-C ) :   1.0470 B(  4-C ,  7-C ) :  -0.1335 B(  4-C ,  8-C ) :  -0.0982 
B(  4-C ,  9-C ) :   0.3775 B(  4-C , 14-H ) :  -0.0805 B(  5-C ,  6-C ) :   0.5637 
B(  5-C ,  7-C ) :  -0.0936 B(  5-C ,  9-C ) :  -0.3552 B(  6-C ,  7-C ) :   0.7051 
B(  6-C ,  8-C ) :  -0.1005 B(  6-C ,  9-C ) :  -0.2256 B(  6-C , 15-H ) :   0.7751 
B(  7-C ,  8-C ) :   0.9506 B(  7-C , 16-H ) :   0.7838 B(  7-C , 17-H ) :  -0.0560 
B(  8-C ,  9-C ) :   0.8026 B(  8-C , 16-H ) :  -0.0543 B(  8-C , 17-H ) :   0.8051 
B(  9-C , 17-H ) :  -0.0684 B(  9-C , 18-H ) :   0.7220 B( 11-H , 12-H ) :  -0.0608 



                     *******************************
                     * LOEWDIN POPULATION ANALYSIS *
                     *******************************

----------------------
LOEWDIN ATOMIC CHARGES
----------------------
   0 C :   -0.382276
   1 C :   -0.088611
   2 C :    0.061463
   3 N :   -0.651547
   4 C :    0.145099
   5 C :   -0.031736
   6 C :   -0.151829
   7 C :   -0.186401
   8 C :   -0.176331
   9 C :   -0.150281
  10 H :    0.160192
  11 H :    0.161040
  12 H :    0.161043
  13 H :    0.184252
  14 H :    0.277154
  15 H :    0.169164
  16 H :    0.165035
  17 H :    0.165887
  18 H :    0.168682

-------------------------------
LOEWDIN REDUCED ORBITAL CHARGES
-------------------------------
  0 C s       :     2.948170  s :     2.948170
      pz      :     1.153952  p :     3.368338
      px      :     1.110498
      py      :     1.103888
      dz2     :     0.011957  d :     0.065768
      dxz     :     0.002826
      dyz     :     0.022567
      dx2y2   :     0.012548
      dxy     :     0.015870

  1 C s       :     2.846312  s :     2.846312
      pz      :     1.037223  p :     3.145144
      px      :     1.050914
      py      :     1.057007
      dz2     :     0.006532  d :     0.097155
      dxz     :     0.010549
      dyz     :     0.013912
      dx2y2   :     0.039196
      dxy     :     0.026966

  2 C s       :     2.825610  s :     2.825610
      pz      :     0.992684  p :     3.000604
      px      :     0.995715
      py      :     1.012205
      dz2     :     0.008247  d :     0.112322
      dxz     :     0.010357
      dyz     :     0.019718
      dx2y2   :     0.031762
      dxy     :     0.042238

  3 N s       :     3.085264  s :     3.085264
      pz      :     1.546141  p :     3.986691
      px      :     1.231904
      py      :     1.208647
      dz2     :     0.054208  d :     0.579592
      dxz     :     0.131096
      dyz     :     0.056779
      dx2y2   :     0.193937
      dxy     :     0.143571

  4 C s       :     2.766928  s :     2.766928
      pz      :     0.941522  p :     2.953143
      px      :     1.026876
      py      :     0.984746
      dz2     :     0.009643  d :     0.134830
      dxz     :     0.021103
      dyz     :     0.016955
      dx2y2   :     0.037963
      dxy     :     0.049165

  5 C s       :     2.829616  s :     2.829616
      pz      :     1.012032  p :     3.102176
      px      :     1.049293
      py      :     1.040851
      dz2     :     0.006981  d :     0.099944
      dxz     :     0.014473
      dyz     :     0.010175
      dx2y2   :     0.035534
      dxy     :     0.032780

  6 C s       :     2.893304  s :     2.893304
      pz      :     0.995684  p :     3.175601
      px      :     1.088333
      py      :     1.091585
      dz2     :     0.005582  d :     0.082924
      dxz     :     0.012820
      dyz     :     0.004679
      dx2y2   :     0.029204
      dxy     :     0.030638

  7 C s       :     2.900776  s :     2.900776
      pz      :     1.011637  p :     3.203593
      px      :     1.097910
      py      :     1.094046
      dz2     :     0.005556  d :     0.082032
      dxz     :     0.009703
      dyz     :     0.007106
      dx2y2   :     0.027066
      dxy     :     0.032601

  8 C s       :     2.901376  s :     2.901376
      pz      :     1.001273  p :     3.192757
      px      :     1.097673
      py      :     1.093811
      dz2     :     0.005535  d :     0.082198
      dxz     :     0.003536
      dyz     :     0.014102
      dx2y2   :     0.031736
      dxy     :     0.027289

  9 C s       :     2.889352  s :     2.889352
      pz      :     1.025486  p :     3.179935
      px      :     1.049910
      py      :     1.104539
      dz2     :     0.005583  d :     0.080993
      dxz     :     0.012340
      dyz     :     0.004945
      dx2y2   :     0.031276
      dxy     :     0.026848

 10 H s       :     0.796832  s :     0.796832
      pz      :     0.008061  p :     0.042976
      px      :     0.024670
      py      :     0.010245

 11 H s       :     0.795704  s :     0.795704
      pz      :     0.021059  p :     0.043256
      px      :     0.008059
      py      :     0.014137

 12 H s       :     0.795701  s :     0.795701
      pz      :     0.021074  p :     0.043255
      px      :     0.008056
      py      :     0.014125

 13 H s       :     0.771416  s :     0.771416
      pz      :     0.011051  p :     0.044332
      px      :     0.022277
      py      :     0.011004

 14 H s       :     0.637468  s :     0.637468
      pz      :     0.022684  p :     0.085377
      px      :     0.011588
      py      :     0.051105

 15 H s       :     0.785965  s :     0.785965
      pz      :     0.009478  p :     0.044871
      px      :     0.009765
      py      :     0.025629

 16 H s       :     0.790405  s :     0.790405
      pz      :     0.009659  p :     0.044560
      px      :     0.015418
      py      :     0.019483

 17 H s       :     0.789528  s :     0.789528
      pz      :     0.009603  p :     0.044585
      px      :     0.027685
      py      :     0.007297

 18 H s       :     0.786246  s :     0.786246
      pz      :     0.009969  p :     0.045072
      px      :     0.010108
      py      :     0.024995


---------------------------------
LOEWDIN BOND ORDERS (THRESH 0.050000)
---------------------------------
B(  0-C ,  1-C ) :   1.1195 B(  0-C ,  2-C ) :   0.0863 B(  0-C ,  5-C ) :   0.0702 
B(  0-C , 10-H ) :   0.9190 B(  0-C , 11-H ) :   0.9122 B(  0-C , 12-H ) :   0.9122 
B(  1-C ,  2-C ) :   1.4707 B(  1-C ,  3-N ) :   0.3217 B(  1-C ,  4-C ) :   0.0972 
B(  1-C ,  5-C ) :   1.1921 B(  1-C ,  6-C ) :   0.0763 B(  1-C , 13-H ) :   0.0532 
B(  2-C ,  3-N ) :   1.5289 B(  2-C ,  4-C ) :   0.1237 B(  2-C ,  5-C ) :   0.1014 
B(  2-C , 13-H ) :   0.8249 B(  3-N ,  4-C ) :   1.4921 B(  3-N ,  5-C ) :   0.2570 
B(  3-N ,  9-C ) :   0.1812 B(  3-N , 13-H ) :   0.0929 B(  3-N , 14-H ) :   0.8705 
B(  4-C ,  5-C ) :   1.1332 B(  4-C ,  6-C ) :   0.0800 B(  4-C ,  7-C ) :   0.0862 
B(  4-C ,  8-C ) :   0.0980 B(  4-C ,  9-C ) :   1.3025 B(  4-C , 18-H ) :   0.0568 
B(  5-C ,  6-C ) :   1.3643 B(  5-C ,  7-C ) :   0.0955 B(  5-C ,  8-C ) :   0.0938 
B(  5-C ,  9-C ) :   0.0749 B(  5-C , 15-H ) :   0.0542 B(  6-C ,  7-C ) :   1.5623 
B(  6-C ,  8-C ) :   0.0858 B(  6-C ,  9-C ) :   0.1258 B(  6-C , 15-H ) :   0.8676 
B(  6-C , 16-H ) :   0.0558 B(  7-C ,  8-C ) :   1.4396 B(  7-C ,  9-C ) :   0.0867 
B(  7-C , 15-H ) :   0.0545 B(  7-C , 16-H ) :   0.8752 B(  7-C , 17-H ) :   0.0527 
B(  8-C ,  9-C ) :   1.5498 B(  8-C , 16-H ) :   0.0529 B(  8-C , 17-H ) :   0.8748 
B(  8-C , 18-H ) :   0.0544 B(  9-C , 17-H ) :   0.0558 B(  9-C , 18-H ) :   0.8687 


------------------------------------------
LOEWDIN REDUCED ORBITAL POPULATIONS PER MO
-------------------------------------------
THRESHOLD FOR PRINTING IS 0.1%%
                      0         1         2         3         4         5   
                 -14.20297 -10.06038 -10.05660 -10.02973 -10.02489 -10.02475
                   2.00000   2.00000   2.00000   2.00000   2.00000   2.00000
                  --------  --------  --------  --------  --------  --------
 0 C  s               0.0       0.0       0.0       0.0      62.4      10.3
 1 C  s               0.0       0.0       0.0       0.0      36.3       9.0
 1 C  py              0.0       0.0       0.1       0.0       0.0       0.0
 2 C  s               0.0       0.0      99.3       0.0       0.0       0.0
 3 N  s              99.8       0.0       0.0       0.0       0.0       0.0
 3 N  dxy             0.0       0.2       0.2       0.0       0.0       0.0
 4 C  s               0.0      99.2       0.0       0.0       0.0       0.0
 4 C  px              0.0       0.0       0.0       0.1       0.0       0.0
 5 C  s               0.0       0.0       0.0       0.0       0.5       3.0
 6 C  s               0.0       0.0       0.0       0.0       0.5      77.2
 7 C  s               0.0       0.0       0.0       0.0       0.0       0.2
 7 C  px              0.0       0.0       0.0       0.0       0.0       0.1
 8 C  s               0.0       0.0       0.0       0.2       0.0       0.0
 9 C  s               0.0       0.0       0.0      99.4       0.0       0.0
 9 C  px              0.0       0.1       0.0       0.0       0.0       0.0

                      6         7         8         9        10        11   
                 -10.02470 -10.02371 -10.02333 -10.01922  -0.95035  -0.80683
                   2.00000   2.00000   2.00000   2.00000   2.00000   2.00000
                  --------  --------  --------  --------  --------  --------
 0 C  s              27.0       0.0       0.0       0.0       0.2       0.3
 0 C  px              0.0       0.0       0.0       0.0       0.1       0.1
 0 C  py              0.0       0.0       0.0       0.0       0.2       0.0
 1 C  s              53.1       0.0       1.2       0.0       3.3       1.1
 1 C  px              0.0       0.0       0.1       0.0       0.6       1.1
 1 C  py              0.0       0.0       0.0       0.0       2.2       0.5
 2 C  s               0.0       0.0       0.0       0.0      10.5       0.6
 2 C  px              0.0       0.0       0.0       0.0       6.4       0.2
 2 C  py              0.1       0.0       0.0       0.0       0.4       1.5
 2 C  dz2             0.0       0.0       0.0       0.0       0.2       0.0
 2 C  dxy             0.0       0.0       0.0       0.0       0.2       0.1
 3 N  s               0.0       0.0       0.0       0.0      38.0       4.1
 3 N  px              0.0       0.0       0.0       0.0       0.0       1.1
 3 N  py              0.0       0.0       0.0       0.0       1.8       0.6
 3 N  dz2             0.0       0.0       0.0       0.0       0.8       0.1
 3 N  dxy             0.0       0.0       0.0       0.0       0.0       0.3
 4 C  s               0.0       0.0       0.0       0.0      11.6       4.3
 4 C  px              0.0       0.0       0.0       0.0       5.3       3.7
 4 C  py              0.0       0.0       0.1       0.0       1.2       3.9
 4 C  dz2             0.0       0.0       0.0       0.0       0.3       0.0
 4 C  dxy             0.0       0.0       0.0       0.0       0.2       0.1
 5 C  s               0.0       0.0      96.1       0.0       3.5       9.8
 5 C  px              0.1       0.0       0.0       0.0       0.2       2.2
 5 C  py              0.0       0.0       0.0       0.0       2.6       0.2
 5 C  dz2             0.0       0.0       0.0       0.0       0.1       0.1
 6 C  s              19.4       0.0       2.3       0.2       0.4      12.2
 6 C  px              0.0       0.0       0.0       0.1       0.1       0.5
 6 C  py              0.0       0.0       0.1       0.0       0.3       2.1
 6 C  dz2             0.0       0.0       0.0       0.0       0.0       0.1
 7 C  s               0.0       0.2       0.0      99.2       0.1      12.6
 7 C  px              0.0       0.0       0.0       0.0       0.1       1.1
 7 C  py              0.0       0.1       0.0       0.0       0.1       1.5
 7 C  dz2             0.0       0.0       0.0       0.0       0.0       0.1
 8 C  s               0.0      99.2       0.0       0.2       0.2      12.2
 8 C  px              0.0       0.0       0.0       0.0       0.2       2.3
 8 C  py              0.0       0.0       0.0       0.1       0.0       0.1
 8 C  dz2             0.0       0.0       0.0       0.0       0.0       0.1
 9 C  s               0.0       0.2       0.0       0.0       1.2       9.8
 9 C  px              0.0       0.1       0.0       0.0       1.3       0.0
 9 C  py              0.0       0.1       0.0       0.0       0.0       2.6
 9 C  dz2             0.0       0.0       0.0       0.0       0.0       0.1
13 H  s               0.0       0.0       0.0       0.0       0.7       0.1
14 H  s               0.0       0.0       0.0       0.0       4.4       1.1
14 H  py              0.0       0.0       0.0       0.0       0.7       0.2
15 H  s               0.0       0.0       0.0       0.0       0.0       1.1
16 H  s               0.0       0.0       0.0       0.0       0.0       1.2
17 H  s               0.0       0.0       0.0       0.0       0.0       1.2
18 H  s               0.0       0.0       0.0       0.0       0.1       0.9

                     12        13        14        15        16        17   
                  -0.76438  -0.70339  -0.69444  -0.65892  -0.59029  -0.55870
                   2.00000   2.00000   2.00000   2.00000   2.00000   2.00000
                  --------  --------  --------  --------  --------  --------
 0 C  s              10.2       2.1       9.2      20.6       0.3       0.3
 0 C  px              0.9       0.0       0.0       0.1       0.0       1.1
 0 C  py              1.2       0.0       0.2       0.6       0.1       0.0
 1 C  s              21.2       1.1       1.9       0.3       0.1       0.5
 1 C  px              0.1       0.1       8.2       1.9       0.3       6.4
 1 C  py              0.2       0.3       0.0      13.5       0.2       3.5
 1 C  dz2             0.2       0.0       0.0       0.0       0.0       0.0
 1 C  dx2y2           0.0       0.0       0.2       0.0       0.0       0.2
 1 C  dxy             0.0       0.0       0.0       0.1       0.1       0.0
 2 C  s               4.7       0.8       4.9       8.0       4.5       3.7
 2 C  px              0.2       0.1       0.6       0.2       2.3       1.7
 2 C  py              6.6       2.3       0.0       0.6       2.4       0.3
 2 C  dx2y2           0.1       0.0       0.0       0.0       0.0       0.0
 2 C  dxy             0.1       0.1       0.0       0.1       0.0       0.0
 3 N  s               4.3       1.9       0.4       2.7       0.1       1.1
 3 N  px              2.6       4.3       4.7       6.5       7.8       0.2
 3 N  py              2.1       1.5       1.2       5.8       6.6       7.9
 3 N  dz2             0.1       0.1       0.0       0.1       0.1       0.1
 3 N  dx2y2           0.3       0.0       0.3       0.0       0.7       2.0
 3 N  dxy             0.7       0.6       1.1       0.7       0.3       0.0
 4 C  s               1.5       7.3       4.2       0.5       1.1       3.5
 4 C  px              2.4       3.3       1.3       0.0       8.7       1.7
 4 C  py              4.4       0.1       1.8       2.3       0.2       1.2
 4 C  dx2y2           0.0       0.1       0.1       0.1       0.0       0.2
 4 C  dxy             0.1       0.1       0.0       0.1       0.1       0.0
 5 C  s               6.4       0.0       8.9       0.0       0.4       6.1
 5 C  px              5.3       1.1       1.5       0.9       1.6       2.1
 5 C  py              0.3       5.7       0.1       2.0       6.1       2.0
 5 C  dxy             0.0       0.2       0.0       0.0       0.0       0.0
 6 C  s               0.6      13.8       2.5       2.4       4.9       0.4
 6 C  px              1.7       2.5       2.7       0.1       3.7       8.3
 6 C  py              0.1       0.3       0.7       0.1       0.1       1.6
 7 C  s               0.7      13.8       3.1       0.0       5.8       3.0
 7 C  px              0.4       1.8       3.0       1.2       5.9       1.7
 7 C  py              0.7       0.9       1.9       0.8       0.3       4.6
 7 C  dx2y2           0.0       0.1       0.1       0.0       0.1       0.1
 8 C  s               3.8       0.0      13.2       2.3       1.9       7.0
 8 C  px              0.3       0.1       0.1       0.1       1.3       2.4
 8 C  py              0.3       8.8       0.0       0.1       8.5       0.9
 8 C  dxy             0.0       0.2       0.0       0.0       0.2       0.0
 9 C  s               5.5      12.0       2.7       0.3       6.5       0.4
 9 C  px              0.0       1.1       4.8       1.5       0.0       8.0
 9 C  py              0.2       0.3       0.8       0.6       0.8       1.4
 9 C  dxy             0.0       0.0       0.1       0.0       0.0       0.1
10 H  s               1.4       0.4       2.0       4.6       0.1       0.6
10 H  px              0.1       0.0       0.2       0.3       0.0       0.0
11 H  s               1.3       0.4       1.7       5.0       0.1       0.0
11 H  pz              0.1       0.0       0.1       0.3       0.0       0.0
11 H  py              0.0       0.0       0.1       0.1       0.0       0.0
12 H  s               1.3       0.4       1.7       5.0       0.1       0.0
12 H  pz              0.1       0.0       0.1       0.3       0.0       0.0
12 H  py              0.0       0.0       0.1       0.1       0.0       0.0
13 H  s               0.6       0.3       1.5       1.5       4.0       2.2
13 H  px              0.0       0.0       0.1       0.1       0.2       0.1
14 H  s               2.1       1.1       0.5       3.7       1.8       4.0
14 H  py              0.3       0.1       0.0       0.4       0.1       0.3
15 H  s               0.1       2.4       0.4       0.7       1.9       0.1
15 H  py              0.0       0.2       0.0       0.0       0.1       0.0
16 H  s               0.1       2.4       0.6       0.0       2.7       1.5
16 H  px              0.0       0.1       0.0       0.0       0.0       0.1
16 H  py              0.0       0.1       0.0       0.0       0.2       0.0
17 H  s               0.5       0.0       2.6       0.6       0.9       4.3
17 H  px              0.0       0.0       0.2       0.1       0.1       0.3
18 H  s               0.8       2.2       0.5       0.0       2.6       0.1
18 H  py              0.1       0.2       0.0       0.0       0.2       0.0

                     18        19        20        21        22        23   
                  -0.52616  -0.50554  -0.45220  -0.43748  -0.40675  -0.40376
                   2.00000   2.00000   2.00000   2.00000   2.00000   2.00000
                  --------  --------  --------  --------  --------  --------
 0 C  s               3.1       0.6       0.1       0.0       0.1       0.0
 0 C  pz              0.0       0.0       0.0       0.0       0.0      15.1
 0 C  px              3.3       0.4       0.9       0.2      14.1       0.0
 0 C  py              3.8       2.4       2.1       2.2       0.2       0.0
 0 C  dxy             0.1       0.0       0.0       0.0       0.1       0.0
 1 C  s               8.5       2.0       0.2       1.1       0.5       0.0
 1 C  pz              0.0       0.0       0.0       0.0       0.0      13.1
 1 C  px              0.1       0.4       6.5       2.4       0.1       0.0
 1 C  py              0.1       0.2       1.3       1.5       5.3       0.0
 1 C  dx2y2           0.0       0.0       0.0       0.1       0.1       0.0
 1 C  dxy             0.1       0.1       0.1       0.0       0.0       0.0
 2 C  s               0.5       0.4       1.0       0.7       0.1       0.0
 2 C  pz              0.0       0.0       0.0       0.0       0.0      11.2
 2 C  px              0.3       6.9      11.9       4.7       0.9       0.0
 2 C  py             10.0       0.7       1.5       7.1       1.7       0.0
 2 C  dxz             0.0       0.0       0.0       0.0       0.0       0.2
 2 C  dx2y2           0.3       0.3       0.0       0.1       0.1       0.0
 2 C  dxy             0.1       0.1       0.1       0.1       0.1       0.0
 3 N  s               0.0       0.3       0.0       0.5       0.1       0.0
 3 N  pz              0.0       0.0       0.0       0.0       0.0      21.1
 3 N  px              8.5       0.6      14.9       0.2       0.5       0.0
 3 N  py              2.7      19.8       0.7       0.0       4.2       0.0
 3 N  dz2             0.0       0.4       0.0       0.2       0.1       0.0
 3 N  dyz             0.0       0.0       0.0       0.0       0.0       0.8
 3 N  dx2y2           0.1       0.1       0.5       1.3       2.0       0.0
 3 N  dxy             0.5       0.0       0.2       0.3       0.0       0.0
 4 C  s               0.3       0.6       0.9       1.1       0.2       0.0
 4 C  pz              0.0       0.0       0.0       0.0       0.0      13.5
 4 C  px              0.1       4.3       2.5       0.3       3.5       0.0
 4 C  py              9.6       1.5       2.6       0.1       5.2       0.0
 4 C  dx2y2           0.0       0.2       0.1       0.0       0.6       0.0
 4 C  dxy             0.0       0.1       0.4       0.3       0.2       0.0
 5 C  s               0.6       0.7       0.1       2.5       1.6       0.0
 5 C  pz              0.0       0.0       0.0       0.0       0.0       9.7
 5 C  px              9.1       0.1       3.9       0.2       1.9       0.0
 5 C  py              1.6       1.3       1.4       0.1       5.7       0.0
 5 C  dx2y2           0.2       0.1       0.3       0.1       0.0       0.0
 5 C  dxy             0.1       0.1       0.1       0.1       0.0       0.0
 6 C  s               0.8       3.7       1.8       0.5       0.0       0.0
 6 C  pz              0.0       0.0       0.0       0.0       0.0       2.0
 6 C  px              0.2       0.6       4.4       5.1       3.9       0.0
 6 C  py              5.4       6.0       0.1       0.3       1.9       0.0
 6 C  dx2y2           0.1       0.0       0.2       0.0       0.0       0.0
 6 C  dxy             0.0       0.0       0.0       0.2       0.1       0.0
 7 C  s               1.0       0.9       2.4       0.6       0.1       0.0
 7 C  pz              0.0       0.0       0.0       0.0       0.0       0.8
 7 C  px              0.1       1.1       0.1      15.8       1.1       0.0
 7 C  py              3.8       1.4       3.5       3.8       5.0       0.0
 7 C  dx2y2           0.0       0.0       0.0       0.0       0.2       0.0
 7 C  dxy             0.0       0.0       0.1       0.0       0.0       0.0
 8 C  s               0.2       0.5       2.7       0.3       0.3       0.0
 8 C  pz              0.0       0.0       0.0       0.0       0.0       0.9
 8 C  px              0.5       1.8       5.3      11.4       3.4       0.0
 8 C  py              0.1       6.5       0.0       2.4       3.8       0.0
 8 C  dx2y2           0.0       0.0       0.1       0.0       0.0       0.0
 9 C  s               1.6       1.2       2.5       0.2       0.1       0.0
 9 C  pz              0.0       0.0       0.0       0.0       0.0       2.8
 9 C  px              0.2       8.5       0.0       1.8       8.1       0.0
 9 C  py              6.2       1.6       1.3       7.9       4.7       0.0
 9 C  dxy             0.0       0.1       0.1       0.2       0.0       0.0
10 H  s               2.1       0.2       0.5       0.1       6.1       0.0
10 H  px              0.1       0.0       0.0       0.0       0.1       0.0
11 H  s               2.0       0.7       0.4       0.4       0.1       3.9
11 H  pz              0.1       0.0       0.0       0.0       0.0       0.0
11 H  py              0.0       0.0       0.0       0.0       0.0       0.1
12 H  s               2.0       0.7       0.4       0.4       0.0       3.9
12 H  pz              0.1       0.0       0.0       0.0       0.0       0.0
12 H  py              0.0       0.0       0.0       0.0       0.0       0.1
13 H  s               0.9       1.7       4.9       7.1       0.0       0.0
13 H  px              0.1       0.0       0.0       0.2       0.0       0.0
13 H  py              0.0       0.1       0.2       0.0       0.0       0.0
14 H  s               1.2       7.0       0.1       0.1       2.2       0.0
14 H  pz              0.0       0.0       0.0       0.0       0.0       0.2
14 H  px              0.1       0.0       0.2       0.0       0.0       0.0
14 H  py              0.1       0.3       0.0       0.0       0.0       0.0
15 H  s               1.8       5.4       1.8       0.2       2.0       0.0
15 H  py              0.1       0.3       0.1       0.0       0.1       0.0
16 H  s               1.6       0.2       3.5       7.6       0.8       0.0
16 H  px              0.1       0.0       0.1       0.0       0.1       0.0
16 H  py              0.0       0.0       0.1       0.2       0.0       0.0
17 H  s               0.0       1.3       5.4       3.1       1.1       0.0
17 H  px              0.0       0.1       0.2       0.1       0.0       0.0
18 H  s               3.4       2.9       2.5       2.0       4.7       0.0
18 H  py              0.1       0.2       0.1       0.0       0.1       0.0

                     24        25        26        27        28        29   
                  -0.39655  -0.37815  -0.36958  -0.35841  -0.34359  -0.31596
                   2.00000   2.00000   2.00000   2.00000   2.00000   2.00000
                  --------  --------  --------  --------  --------  --------
 0 C  s               0.0       0.0       0.0       0.3       0.0       0.0
 0 C  pz              0.0       0.0      39.4       0.0       0.0       0.0
 0 C  px              0.4      12.4       0.0       3.2      10.6       1.9
 0 C  py              0.4       3.5       0.0      29.7       4.8       3.1
 0 C  dz2             0.0       0.1       0.0       0.2       0.1       0.1
 0 C  dyz             0.0       0.0       0.4       0.0       0.0       0.0
 0 C  dx2y2           0.0       0.0       0.0       0.0       0.2       0.2
 0 C  dxy             0.0       0.1       0.0       0.2       0.0       0.0
 1 C  s               0.0       0.0       0.0       0.5       0.2       0.1
 1 C  pz              0.0       0.0       1.4       0.0       0.0       0.0
 1 C  px              0.3       0.9       0.0       7.6       2.5       4.0
 1 C  py              0.8       4.3       0.0      14.1       1.3       3.2
 1 C  dxz             0.0       0.0       0.1       0.0       0.0       0.0
 1 C  dyz             0.0       0.0       0.2       0.0       0.0       0.0
 1 C  dx2y2           0.0       0.0       0.0       0.0       0.6       0.5
 1 C  dxy             0.0       0.0       0.0       0.4       0.0       0.1
 2 C  s               0.0       0.3       0.0       0.7       0.2       0.4
 2 C  pz              0.0       0.0       2.0       0.0       0.0       0.0
 2 C  px              0.0      10.5       0.0       0.4       2.1       0.1
 2 C  py              0.2       3.3       0.0       4.4       2.4       4.8
 2 C  dx2y2           0.1       0.2       0.0       0.0       0.2       0.0
 2 C  dxy             0.0       0.3       0.0       0.5       0.1       0.0
 3 N  s               0.2       0.0       0.0       0.4       0.1       0.3
 3 N  pz              0.0       0.0      14.1       0.0       0.0       0.0
 3 N  px              0.3       4.6       0.0       2.3       1.3       1.0
 3 N  py              3.1       0.0       0.0       1.3       0.5       0.1
 3 N  dz2             0.1       0.0       0.0       0.2       0.0       0.1
 3 N  dyz             0.0       0.0       0.2       0.0       0.0       0.0
 3 N  dx2y2           0.8       0.1       0.0       0.2       0.0       0.0
 3 N  dxy             0.2       0.3       0.0       0.9       0.1       0.4
 4 C  s               1.2       0.0       0.0       0.4       0.3       0.2
 4 C  pz              0.0       0.0       9.2       0.0       0.0       0.0
 4 C  px              1.3       6.0       0.0       0.0       2.6       0.1
 4 C  py              4.2       0.1       0.0       1.4       0.4       0.2
 4 C  dxy             0.0       0.1       0.0       0.0       0.1       0.5
 5 C  s               0.3       0.0       0.0       0.0       0.7       0.0
 5 C  pz              0.0       0.0       1.4       0.0       0.0       0.0
 5 C  px              0.8       1.4       0.0       2.3       3.9       7.2
 5 C  py              7.0       2.4       0.0       0.1       0.7       4.9
 5 C  dx2y2           0.1       0.0       0.0       0.0       0.0       0.1
 5 C  dxy             0.3       0.1       0.0       0.3       0.0       0.2
 6 C  s               0.2       0.2       0.0       0.0       0.4       0.0
 6 C  pz              0.0       0.0       0.5       0.0       0.0       0.0
 6 C  px              0.0       7.3       0.0       0.5       3.6       6.3
 6 C  py             23.5       0.0       0.0       0.4       0.9       5.6
 6 C  dx2y2           0.1       0.1       0.0       0.0       0.0       0.0
 6 C  dxy             0.1       0.0       0.0       0.1       0.0       0.6
 7 C  s               0.8       0.1       0.0       0.1       0.3       0.1
 7 C  pz              0.0       0.0       0.7       0.0       0.0       0.0
 7 C  px              0.4       5.2       0.0       0.1       4.4       7.4
 7 C  py              6.5       0.9       0.0       5.6       0.3       8.3
 7 C  dx2y2           0.0       0.0       0.0       0.1       0.4       0.0
 7 C  dxy             0.0       0.0       0.0       0.1       0.1       1.0
 8 C  s               0.3       0.0       0.0       0.1       0.2       0.2
 8 C  pz              0.0       0.0       1.1       0.0       0.0       0.0
 8 C  px              0.3       1.4       0.0       2.2      17.3       1.6
 8 C  py              4.5       4.9       0.0       3.1       0.1       5.5
 8 C  dx2y2           0.2       0.0       0.0       0.1       0.6       0.1
 8 C  dxy             0.3       0.0       0.0       0.0       0.1       0.4
 9 C  s               0.1       0.0       0.0       0.0       0.4       0.2
 9 C  pz              0.0       0.0       3.0       0.0       0.0       0.0
 9 C  px              0.9       6.5       0.0       0.1       3.9       2.0
 9 C  py             15.8       1.0       0.0       0.5       1.6       4.1
 9 C  dx2y2           0.2       0.0       0.0       0.1       0.3       0.0
10 H  s               0.1       7.3       0.0       0.1       8.8       2.7
10 H  pz              0.0       0.0       0.3       0.0       0.0       0.0
10 H  px              0.0       0.1       0.0       0.1       0.1       0.0
10 H  py              0.0       0.0       0.0       0.2       0.0       0.0
11 H  s               0.1       1.0      12.4       4.3       1.7       0.9
11 H  pz              0.0       0.0       0.0       0.2       0.1       0.0
11 H  py              0.0       0.0       0.3       0.0       0.0       0.0
12 H  s               0.1       1.0      12.4       4.4       1.7       0.9
12 H  pz              0.0       0.0       0.0       0.2       0.1       0.0
12 H  py              0.0       0.0       0.3       0.0       0.0       0.0
13 H  s               0.0       9.6       0.0       0.2       2.3       0.8
13 H  px              0.0       0.1       0.0       0.0       0.0       0.0
14 H  s               1.3       0.0       0.0       0.6       0.2       0.0
14 H  pz              0.0       0.0       0.2       0.0       0.0       0.0
15 H  s              10.6       0.8       0.0       0.7       0.5       1.8
15 H  px              0.1       0.0       0.0       0.0       0.0       0.1
15 H  py              0.1       0.1       0.0       0.0       0.0       0.0
16 H  s               1.1       0.1       0.0       1.7       1.8      12.4
17 H  s               0.8       0.4       0.0       1.3      11.4       1.5
17 H  px              0.0       0.0       0.0       0.0       0.1       0.0
18 H  s               9.1       0.0       0.0       0.3       0.0       1.0
18 H  py              0.1       0.0       0.0       0.0       0.0       0.0

                     30        31        32        33        34        35   
                  -0.30982  -0.29751  -0.24985  -0.20353  -0.18210  -0.03360
                   2.00000   2.00000   2.00000   2.00000   2.00000   0.00000
                  --------  --------  --------  --------  --------  --------
 0 C  s               0.0       0.1       0.0       0.0       0.0       0.0
 0 C  pz              0.1       0.0       2.3       0.0       0.8       0.2
 0 C  px              0.0       5.6       0.0       0.0       0.0       0.0
 0 C  py              0.0       0.4       0.0       0.0       0.0       0.0
 0 C  dyz             0.0       0.0       0.2       0.0       0.4       0.1
 0 C  dx2y2           0.0       0.1       0.0       0.0       0.0       0.0
 1 C  pz              0.4       0.0      12.8       0.1      24.1       4.3
 1 C  px              0.0       8.7       0.0       0.0       0.0       0.0
 1 C  dxz             0.0       0.0       0.1       0.2       0.0       0.3
 1 C  dyz             0.1       0.0       0.0       0.1       0.2       0.2
 1 C  dxy             0.0       0.2       0.0       0.0       0.0       0.0
 2 C  pz              8.1       0.0       2.9      11.6      13.8      15.2
 2 C  py              0.0       0.4       0.0       0.0       0.0       0.0
 2 C  dxz             0.1       0.0       0.0       0.0       0.1       0.2
 2 C  dyz             0.0       0.0       0.2       0.0       0.6       0.1
 2 C  dxy             0.0       0.1       0.0       0.0       0.0       0.0
 3 N  pz             15.7       0.0       4.3       7.5      14.7       2.1
 3 N  px              0.0       0.2       0.0       0.0       0.0       0.0
 3 N  py              0.0       0.3       0.0       0.0       0.0       0.0
 3 N  dxz             0.5       0.0       1.1       3.5       1.4       1.3
 3 N  dyz             0.0       0.0       0.3       0.6       0.8       0.2
 3 N  dx2y2           0.0       1.1       0.0       0.0       0.0       0.0
 3 N  dxy             0.0       0.1       0.0       0.0       0.0       0.0
 4 C  pz              0.5       0.0       4.5      17.4       1.9       0.8
 4 C  px              0.0       3.9       0.0       0.0       0.0       0.0
 4 C  py              0.0       8.8       0.0       0.0       0.0       0.0
 4 C  dxz             0.3       0.0       0.2       0.1       0.3       0.9
 4 C  dyz             0.2       0.0       0.3       0.3       0.1       0.1
 4 C  dx2y2           0.0       0.3       0.0       0.0       0.0       0.0
 5 C  s               0.0       0.1       0.0       0.0       0.0       0.0
 5 C  pz              4.8       0.0      18.0      16.7       0.1       6.5
[...]
 0 C  px              0.2       0.0       0.0       0.0       0.0       0.0
 0 C  dxy             0.4       0.0       0.0       0.0       0.0       0.0
 1 C  s               0.2       0.1       5.4      43.8       0.2       4.6
 1 C  px              0.5       0.4       0.0       0.0       0.1       0.0
 1 C  py              0.1       0.1       0.0       0.0       0.1       0.0
 1 C  dx2y2           1.0       0.4       0.0       0.0       0.0       0.0
 1 C  dxy             1.1       0.1       0.0       0.0       0.0       0.0
 2 C  s               0.6       0.2       0.6      17.4       0.1       2.5
 2 C  px              3.5       0.1       0.0       0.0       0.0       0.0
 2 C  py              0.3       0.3       0.0       0.0       0.0       0.0
 2 C  dz2             0.0       0.2       0.0       0.0       0.0       0.0
 2 C  dx2y2           0.1       1.6       0.0       0.0       0.0       0.0
 2 C  dxy             7.7       0.2       0.0       0.0       0.0       0.0
 3 N  s               2.3       0.6       0.2       0.1       0.0       0.0
 3 N  px              7.9       2.2       0.0       0.0       0.0       0.0
 3 N  py              2.3       9.7       0.0       0.0       0.0       0.0
 3 N  dz2             3.0       0.7       0.0       0.0       0.0       0.0
 3 N  dx2y2          16.3      18.0       0.0       0.0       0.0       0.0
 3 N  dxy            10.5       9.8       0.0       0.0       0.0       0.0
 4 C  s               1.1       0.4       9.0       0.1       9.4       1.3
 4 C  px              0.3       2.5       0.0       0.0       0.0       0.2
 4 C  py              1.3       1.2       0.0       0.0       0.0       0.0
 4 C  dz2             0.7       0.1       0.0       0.0       0.0       0.0
 4 C  dx2y2           2.4       0.4       0.0       0.0       0.0       0.0
 4 C  dxy             3.4       7.2       0.0       0.0       0.0       0.0
 5 C  s               0.1       0.2      21.1      11.2       6.7       9.4
 5 C  px              0.8       0.3       0.0       0.1       0.0       0.1
 5 C  py              0.2       0.0       0.0       0.0       0.0       0.1
 5 C  dx2y2           1.3       1.9       0.0       0.0       0.0       0.0
 6 C  s               0.1       0.1      15.6       0.5       0.9      25.9
 6 C  px              0.2       0.1       0.0       0.0       0.0       0.0
 6 C  py              0.2       0.2       0.0       0.0       0.0       0.0
 6 C  dx2y2           0.8       1.5       0.0       0.0       0.0       0.0
 6 C  dxy             0.4       0.9       0.0       0.0       0.0       0.0
 7 C  s               0.1       0.1      16.1       6.5       8.5       9.9
 7 C  px              0.2       0.2       0.0       0.0       0.0       0.1
 7 C  py              0.1       0.3       0.0       0.0       0.0       0.0
 7 C  dx2y2           0.2       0.1       0.0       0.0       0.0       0.0
 7 C  dxy             1.3       2.4       0.0       0.0       0.0       0.0
 8 C  s               0.1       0.1      17.2       8.8       2.3      15.5
 8 C  px              0.4       0.5       0.0       0.0       0.0       0.0
 8 C  dx2y2           1.8       3.1       0.0       0.0       0.0       0.0
 8 C  dxy             0.3       0.2       0.0       0.0       0.0       0.0
 9 C  s               0.3       0.1      14.2       5.9       1.5      28.3
 9 C  px              0.2       0.3       0.0       0.0       0.0       0.0
 9 C  py              0.3       1.1       0.0       0.0       0.0       0.0
 9 C  dz2             0.3       0.0       0.0       0.0       0.0       0.0
 9 C  dx2y2           0.2       2.9       0.0       0.0       0.0       0.0
 9 C  dxy             2.0       1.8       0.0       0.0       0.0       0.0
13 H  s               1.6       0.3       0.0       0.0       0.0       0.0
13 H  px              1.7       0.3       0.0       0.0       0.0       0.0
13 H  py              0.7       0.2       0.0       0.0       0.0       0.0
14 H  s               4.7       6.8       0.0       0.0       0.0       0.0
14 H  px              0.8       0.0       0.0       0.0       0.0       0.0
14 H  py              6.7       9.7       0.0       0.0       0.0       0.0
15 H  s               0.3       0.5       0.0       0.0       0.0       0.0
15 H  px              0.1       0.2       0.0       0.0       0.0       0.0
15 H  py              0.5       0.7       0.0       0.0       0.0       0.0
16 H  s               0.3       0.6       0.0       0.0       0.0       0.0
16 H  px              0.2       0.4       0.0       0.0       0.0       0.0
16 H  py              0.3       0.5       0.0       0.0       0.0       0.0
17 H  s               0.5       0.7       0.0       0.0       0.0       0.0
17 H  px              0.9       1.0       0.0       0.0       0.0       0.0
18 H  s               0.5       1.2       0.0       0.0       0.0       0.0
18 H  px              0.1       0.3       0.0       0.0       0.0       0.0
18 H  py              0.7       1.7       0.0       0.0       0.0       0.0

                    234       235       236       237       238       239   
                  22.08472  22.19398  22.24669  22.29430  22.37219  31.94318
                   0.00000   0.00000   0.00000   0.00000   0.00000   0.00000
                  --------  --------  --------  --------  --------  --------
 0 C  s              17.4       0.2       1.6       3.0       0.1       0.0
 1 C  s               6.8       1.5      29.8       1.4       6.1       0.0
 1 C  py              0.0       0.0       0.0       0.1       0.0       0.0
 2 C  s              11.8      22.0      22.3      17.9       4.6       0.0
 3 N  s               0.0       0.1       0.1       0.0       0.0      99.7
 4 C  s               3.1      18.3       9.7      21.6      26.6       0.0
 4 C  px              0.0       0.1       0.0       0.0       0.0       0.0
 5 C  s               8.9      16.1       8.8       1.6      15.7       0.0
 5 C  py              0.0       0.0       0.0       0.2       0.0       0.0
 6 C  s               4.0       3.4       4.8      31.5      12.7       0.0
 7 C  s              28.1       4.8       1.6      15.9       8.3       0.0
 8 C  s               8.2      26.4       8.6       4.5       8.0       0.0
 9 C  s              11.1       6.7      12.3       1.9      17.6       0.0



                      *****************************
                      * MAYER POPULATION ANALYSIS *
                      *****************************

  NA   - Mulliken gross atomic population
  ZA   - Total nuclear charge
  QA   - Mulliken gross atomic charge
  VA   - Mayer's total valence
  BVA  - Mayer's bonded valence
  FA   - Mayer's free valence

  ATOM       NA         ZA         QA         VA         BVA        FA
  0 C      6.5938     6.0000    -0.5938     3.7471     3.7471    -0.0000
  1 C      5.9133     6.0000     0.0867     3.3556     3.3556     0.0000
  2 C      6.2073     6.0000    -0.2073     3.7732     3.7732     0.0000
  3 N      7.0489     7.0000    -0.0489     3.3731     3.3731    -0.0000
  4 C      5.8929     6.0000     0.1071     3.9508     3.9508     0.0000
  5 C      5.7696     6.0000     0.2304     3.7948     3.7948     0.0000
  6 C      6.3068     6.0000    -0.3068     3.6646     3.6646     0.0000
  7 C      6.1641     6.0000    -0.1641     3.8222     3.8222     0.0000
  8 C      6.1462     6.0000    -0.1462     3.8667     3.8667    -0.0000
  9 C      6.3784     6.0000    -0.3784     3.7547     3.7547    -0.0000
 10 H      0.8520     1.0000     0.1480     0.9647     0.9647     0.0000
 11 H      0.8413     1.0000     0.1587     0.9551     0.9551    -0.0000
 12 H      0.8413     1.0000     0.1587     0.9551     0.9551    -0.0000
 13 H      0.8625     1.0000     0.1375     0.9794     0.9794     0.0000
 14 H      0.7548     1.0000     0.2452     0.9230     0.9230    -0.0000
 15 H      0.8558     1.0000     0.1442     0.9713     0.9713     0.0000
 16 H      0.8568     1.0000     0.1432     0.9697     0.9697     0.0000
 17 H      0.8545     1.0000     0.1455     0.9694     0.9694    -0.0000
 18 H      0.8596     1.0000     0.1404     0.9739     0.9739    -0.0000

  Mayer bond orders larger than 0.100000
B(  0-C ,  1-C ) :   0.7754 B(  0-C , 10-H ) :   0.9954 B(  0-C , 11-H ) :   0.9808 
B(  0-C , 12-H ) :   0.9808 B(  1-C ,  2-C ) :   1.5213 B(  1-C ,  5-C ) :   1.1861 
B(  2-C ,  3-N ) :   1.1545 B(  2-C , 13-H ) :   0.9296 B(  3-N ,  4-C ) :   1.1983 
B(  3-N , 14-H ) :   0.9110 B(  4-C ,  5-C ) :   1.4113 B(  4-C ,  9-C ) :   1.2684 
B(  5-C ,  6-C ) :   1.2371 B(  6-C ,  7-C ) :   1.4538 B(  6-C , 15-H ) :   0.9471 
B(  7-C ,  8-C ) :   1.3673 B(  7-C , 16-H ) :   0.9460 B(  8-C ,  9-C ) :   1.4595 
B(  8-C , 17-H ) :   0.9532 B(  9-C , 18-H ) :   0.9281 

-------
TIMINGS
-------

Total SCF time: 0 days 0 hours 1 min 0 sec 

Total time                  ....      60.516 sec
Sum of individual times     ....      50.193 sec  ( 82.9%)

SCF preparation             ....       0.199 sec  (  0.3%)
Fock matrix formation       ....      43.323 sec  ( 71.6%)
  Startup                   ....       0.071 sec  (  0.2% of F)
  Split-RI-J                ....       6.209 sec  ( 14.3% of F)
  XC integration            ....      36.410 sec  ( 84.0% of F)
    Basis function eval.    ....       3.535 sec  (  9.7% of XC)
    Density eval.           ....       7.020 sec  ( 19.3% of XC)
    XC-Functional eval.     ....       2.223 sec  (  6.1% of XC)
    XC-Potential eval.      ....       7.520 sec  ( 20.7% of XC)
Diagonalization             ....       0.000 sec  (  0.0%)
Density matrix formation    ....       0.246 sec  (  0.4%)
Total Energy calculation    ....       0.036 sec  (  0.1%)
Population analysis         ....       0.129 sec  (  0.2%)
Orbital Transformation      ....       0.060 sec  (  0.1%)
Orbital Orthonormalization  ....       0.000 sec  (  0.0%)
DIIS solution               ....       6.058 sec  ( 10.0%)
  MO trafo                  ....       0.000 sec  (  0.0 % of DIIS)
  Orb grad                  ....       0.000 sec  (  0.0 % of DIIS)
  Energy W gradient         ....       0.000 sec  (  0.0 % of DIIS)
  DIIS error                ....       0.014 sec  (  0.2 % of DIIS)
  DIIS work                 ....       5.994 sec  ( 98.9 % of DIIS)
  Form Q                    ....       0.000 sec  (  0.0 % of DIIS)
  Form QpQm                 ....       0.000 sec  (  0.0 % of DIIS)
  Exp/Cayley                ....       0.000 sec  (  0.0 % of DIIS)
  Orb update                ....       0.000 sec  (  0.0 % of DIIS)
  Wake-sleep                ....       0.019 sec  (  0.3 % of DIIS)
SOSCF solution              ....       0.143 sec  (  0.2%)
  MO trafo                  ....       0.063 sec  ( 44.4 % of SOSCF)
  Orb grad                  ....       0.002 sec  (  1.3 % of SOSCF)
  Rot update                ....       0.041 sec  ( 28.6 % of SOSCF)
  Step                      ....       0.037 sec  ( 25.7 % of SOSCF)
Finished LeanSCF after  60.6 sec

Maximum memory used throughout the entire LEANSCF-calculation: 26.9 MB


-------------------------------------------------------------------------------
                          DFT DISPERSION CORRECTION                            
                                                                               
                                DFTD4 V3.4.0                                   
-------------------------------------------------------------------------------
The R2SCAN3C composite method is recognized
Using three-body term ABC
Active option DFTDOPT                   ...         5   

-------------------------   ----------------
Dispersion correction           -0.006997329
-------------------------   ----------------

------------------   -----------------
gCP correction             0.007387953
------------------   -----------------

-------------------------   --------------------
FINAL SINGLE POINT ENERGY      -403.026171725780
-------------------------   --------------------


------------------------------------------------------------------------------
                              ORCA PROPERTY CALCULATIONS
------------------------------------------------------------------------------

GBWName                                 ... sp_gas.gbw
Number of atoms                         ...     19
Number of basis functions               ...    240
Max core memory                         ...   1024 MB

Electric properties:
Dipole moment                           ... YES
Quadrupole moment                       ...  NO
Static polarizability (Dipole/Dipole)   ...  NO
Static polarizability (Dipole/Quad.)    ...  NO
Static polarizability (Quad./Quad.)     ...  NO
Static polarizability (Velocity)        ...  NO

Atomic electric properties:
Dipole moment                           ...  NO
Quadrupole moment                       ...  NO
Static polarizability                   ...  NO

Choice of electric origin               ... Center of mass
Position of electric origin             ...    -0.000008    -0.000003    -0.000000

General magnetic properties:
Magnetizability                         ...  NO

EPR properties:
g-Tensor (aka g-matrix)                 ...  NO
Zero-Field splitting spin-orbit         ...  NO
Zero-field splitting spin-spin          ...  NO
Hyperfine couplings                     ...  NO (   0 nuclei)
Quadrupole couplings                    ...  NO (   0 nuclei)
Contact density                         ...  NO (   0 nuclei)

NMR properties:
Chemical shifts                         ...  NO (   0 nuclei)
Spin-rotation constants                 ...  NO (   0 nuclei)
Spin-spin couplings                     ...  NO (   0 nuclei,    0 pairs)

Choice of magnetic origin               ... GIAO
Position of magnetic origin             ...     0.000000     0.000000     0.000000

Properties with geometric perturbations:
SCF Hessian                             ...  NO
IR spectrum                             ...  NO
VCD spectrum                            ...  NO
X-ray spectroscopy properties:
SCF XES/XAS/RIXS spectra                ...  NO


-------------
DIPOLE MOMENT
-------------

Method             : SCF
Type of density    : Electron Density
Multiplicity       :   1
Irrep              :   0
Energy             :  -403.0265623497164142 Eh
Relativity type    : 
Basis              : AO
                                X                 Y                 Z
Electronic contribution:      2.593421397      -3.589003149       0.000175185
Nuclear contribution   :     -3.013196683       2.887123512      -0.000706319
                        -----------------------------------------
Total Dipole Moment    :     -0.419775286      -0.701879637      -0.000531134
                        -----------------------------------------
Magnitude (a.u.)       :      0.817830421
Magnitude (Debye)      :      2.078759729



--------------------
Rotational spectrum 
--------------------
 
Rotational constants in cm-1:             0.087776             0.042953             0.028995 
Rotational constants in MHz :          2631.470170          1287.702910           869.259587 

Dipole components along the rotational axes: 
x,y,z [a.u.] :    -0.419774    -0.701880    -0.000531 
x,y,z [Debye]:    -1.066982    -1.784038    -0.001350 

 

Dipole moment calculation done in   0.0 sec 

Maximum memory used throughout the entire PROP-calculation: 16.0 MB

--------------------------------
SUGGESTED CITATIONS FOR THIS RUN
--------------------------------

Below you find a list of papers that are relevant to this ORCA run
We neither can nor want to force you to cite these papers, but we appreciate if you do
You receive ORCA, which is the product of decades of hard work by many enthusiastic individuals, for free
The only thing we kindly ask in return is that you cite our papers,
We deeply appreciate it, if you show your appreciation for ORCA by not just citing the generic ORCA reference.

Please note that relegating all ORCA citations to the supporting information does *not* help us.
SI sections are not indexed - citations you put there will not count into any citation statistics
But we need these citations in order to attract the funding resources that allow us to do what we are doing

Therefore, if you are a happy ORCA user, please consider citing a few of the papers listed below in the main body of your paper

In addition to the list printed below, the program has created the file sp_gas.bibtex that contains the list in bibtex format
You can import this file easily into all common literature databanks and citation aid programs


List of essential papers. We consider these as the minimum necessary citations

  1. Neese,F.
     Software update: the ORCA program system, version 5.0
     WIRES Comput. Molec. Sci., 2022 12(1)e1606
     doi.org/10.1002/wcms.1606
  2. Grimme,S.; Hansen,A.; Ehlert,S.; Mewes,J.
     r2SCAN-3c: A 'Swiss army knife' composite electronic-structure method
     J. Chem. Phys., 2021 154 064103
     doi.org/10.1063/5.0040021

List of papers to cite with high priority. The work reported in these papers was absolutely
necessary for this run to complete.
Our perspective: the developers of density functionals and basis sets usually get cited in chemistry papers
Good! But without the algorithms to do something with them, the functionals or basis sets would not do anything.
Hence, in our opinion, the algorithm design and method developments papers are equally worthy of getting cited

  1. Neese,F.
     An improvement of the resolution of the identity approximation for the formation of the Coulomb matrix
     J. Comp. Chem., 2003 24(14)1740-1747
     doi.org/10.1002/jcc.10318
  2. Neese,F.
     The SHARK Integral Generation and Digestion System
     J. Comp. Chem., 2022  1-16
     doi.org/10.1002/jcc.26942
  3. Lehtola,S.; Steigemann,C.; Oliveira,M.; Marques,M.
     Recent developments in Libxc - A comprehensive library of functionals for density functional theory
     Software X, 2018 7 
     doi.org/10.1016/j.softx.2017.11.002
  4. Caldeweyher,E.; Bannwarth,C.; Grimme,S.
     Extension of the D3 dispersion coefficient model
     J. Chem. Phys., 2017 147 034112-XXXX
     doi.org/10.1063/1.4993215
  5. Caldeweyher,E.; Ehlert,S.; Hansen,A.; Neugebauer,H.; Spicher,S.; Bannwarth,C.; Grimme,S.
     A generally applicable atomic-charge dependent London dispersion correction
     J. Chem. Phys., 2019 150 154122-XXXX
     doi.org/10.1063/1.5090222
  6. Caldeweyher,E.; Mewes,J.; Ehlert,S.; Grimme,S.
     Extension and evaluation of the D4 London-dispersion model for periodic systems
     Phys. Chem. Chem. Phys., 2020 22(16)8499-8512
     doi.org/10.1039/D0CP00502A

List of suggested additional citations. These are papers that are important in the 'surrounding' of 
of this run, or papers that preceded the highly important papers. If you like your results we are grateful for a citation.

  1. Neese,F.
     The ORCA program system
     WIRES Comput. Molec. Sci., 2012 2(1)73-78
     doi.org/10.1002/wcms.81
  2. Neese,F.
     Software update: the ORCA program system, version 4.0
     WIRES Comput. Molec. Sci., 2018 8(1)1-6
     doi.org/10.1002/wcms.1327
  3. Neese,F.; Wennmohs,F.; Becker,U.; Riplinger,C.
     The ORCA quantum chemistry program package
     J. Chem. Phys., 2020 152 Art. No. L224108
     doi.org/10.1063/5.0004608

List of optional additional citations

  1. Neese,F.
     Approximate second-order SCF convergence for spin unrestricted wavefunctions
     Chem. Phys. Lett., 2000 325(1-3)93-98
     doi.org/10.1016/s0009-2614(00)00662-x

Timings for individual modules:

Sum of individual times          ...       65.105 sec (=   1.085 min)
Startup calculation              ...        3.800 sec (=   0.063 min)   5.8 %
SCF iterations                   ...       61.200 sec (=   1.020 min)  94.0 %
Property calculations            ...        0.105 sec (=   0.002 min)   0.2 %
                             ****ORCA TERMINATED NORMALLY****
TOTAL RUN TIME: 0 days 0 hours 1 minutes 6 seconds 628 msec
