
                                 *****************
                                 * O   R   C   A *
                                 *****************

                                            #,                                       
                                            ###                                      
                                            ####                                     
                                            #####                                    
                                            ######                                   
                                           ########,                                 
                                     ,,################,,,,,                         
                               ,,#################################,,                 
                          ,,##########################################,,             
                       ,#########################################, ''#####,          
                    ,#############################################,,   '####,        
                  ,##################################################,,,,####,       
                ,###########''''           ''''###############################       
              ,#####''   ,,,,##########,,,,          '''####'''          '####       
            ,##' ,,,,###########################,,,                        '##       
           ' ,,###''''                  '''############,,,                           
         ,,##''                                '''############,,,,        ,,,,,,###''
      ,#''                                            '''#######################'''  
     '                                                          ''''####''''         
             ,#######,   #######,   ,#######,      ##                                
            ,#'     '#,  ##    ##  ,#'     '#,    #''#        ,####,   ,####,        
            ##       ##  ##   ,#'  ##            #'  '#       #'       #'  '#        
            ##       ##  #######   ##           ,######,      #####,   #    #        
            '#,     ,#'  ##    ##  '#,     ,#' ,#      #,     #,   #   #,  ,#        
             '#######'   ##     ##  '#######'  #'      '#     '####' # '####'        



                #########################################################
                #                        -***-                          #
                #          Department of theory and spectroscopy        #
                #                                                       #
                #                      Frank Neese                      #
                #                                                       #
                #     Directorship, Architecture, Infrastructure        #
                #                    SHARK, DRIVERS                     #
                #        Core code/Algorithms in most modules           #
                #                                                       #
                #        Max Planck Institute fuer Kohlenforschung      #
                #                Kaiser Wilhelm Platz 1                 #
                #                 D-45470 Muelheim/Ruhr                 #
                #                      Germany                          #
                #                                                       #
                #                  All rights reserved                  #
                #                        -***-                          #
                #########################################################


                         Program Version 6.0.0  -   RELEASE  -


 With contributions from (in alphabetic order):
   Daniel Aravena         : Magnetic Suceptibility
   Michael Atanasov       : Ab Initio Ligand Field Theory (pilot matlab implementation)
   Alexander A. Auer      : GIAO ZORA, VPT2 properties, NMR spectrum
   Ute Becker             : All parallelization in ORCA, NUMFREQ, NUMCALC
   Giovanni Bistoni       : ED, misc. LED, open-shell LED, HFLD
   Martin Brehm           : Molecular dynamics
   Dmytro Bykov           : pre 5.0 version of the SCF Hessian
   Marcos Casanova-Páez   : Triplet and SCS-CIS(D). UHF-(DLPNO)-IP/EA/STEOM-CCSD. UHF-CVS-IP/STEOM-CCSD
   Vijay G. Chilkuri      : MRCI spin determinant printing, contributions to CSF-ICE
   Pauline Colinet        : FMM embedding
   Dipayan Datta          : RHF DLPNO-CCSD density
   Achintya Kumar Dutta   : EOM-CC, STEOM-CC
   Nicolas Foglia         : Exact transition moments, OPA infrastructure, MCD improvements
   Dmitry Ganyushin       : Spin-Orbit,Spin-Spin,Magnetic field MRCI
   Miquel Garcia          : C-PCM and meta-GGA Hessian, CCSD/C-PCM, Gaussian charge scheme
   Tiago L. C. Gouveia    : GS-ROHF, GS-ROCIS
   Yang Guo               : DLPNO-NEVPT2, F12-NEVPT2, CIM, IAO-localization
   Andreas Hansen         : Spin unrestricted coupled pair/coupled cluster methods
   Ingolf Harden          : AUTO-CI MPn and infrastructure 
   Benjamin Helmich-Paris : MC-RPA, TRAH-(SCF,CASSCF), AVAS, COSX integrals, SCF dyn. polar.
   Lee Huntington         : MR-EOM, pCC
   Robert Izsak           : Overlap fitted RIJCOSX, COSX-SCS-MP3, EOM
   Riya Kayal             : Wick's Theorem for AUTO-CI, AUTO-CI UHF-CCSDT
   Emily Kempfer          : AUTO-CI, RHF CISDT and CCSDT
   Christian Kollmar      : KDIIS, OOCD, Brueckner-CCSD(T), CCSD density, CASPT2, CASPT2-K, improved NEVPT2
   Axel Koslowski         : Symmetry handling
   Simone Kossmann        : Meta GGA functionals, TD-DFT gradient, OOMP2, (MP2 Hessian; deprecated post 5.0)
   Lucas Lang             : DCDCAS
   Marvin Lechner         : AUTO-CI (C++ implementation), FIC-MRCC
   Spencer Leger          : CASSCF response
   Dagmar Lenk            : GEPOL surface, SMD, ORCA-2-JSON
   Dimitrios Liakos       : Extrapolation schemes; Compound Job, initial MDCI parallelization
   Dimitrios Manganas     : Further ROCIS development; embedding schemes. LFT, Crystal Embedding
   Dimitrios Pantazis     : SARC Basis sets
   Anastasios Papadopoulos: AUTO-CI, single reference methods and gradients
   Taras Petrenko         : pre 6.0 DFT Hessian and TD-DFT gradient, (ASA, deprecated), ECA, 1-Electron XAS/XES, NRVS
   Peter Pinski           : DLPNO-MP2, DLPNO-MP2 Gradient
   Christoph Reimann      : Effective Core Potentials
   Marius Retegan         : Local ZFS, SOC
   Christoph Riplinger    : Optimizer, TS searches, QM/MM, DLPNO-CCSD(T), (RO)-DLPNO pert. Triples
   Michael Roemelt        : Original ROCIS implementation
   Masaaki Saitow         : Open-shell DLPNO-CCSD energy and density
   Barbara Sandhoefer     : DKH picture change effects
   Kantharuban Sivalingam : CASSCF convergence/infrastructure, NEVPT2 and variants, FIC-MRCI
   Bernardo de Souza      : ESD, SOC TD-DFT
   Georgi Stoychev        : AutoAux, RI-MP2 NMR, DLPNO-MP2 response, X2C
   Van Anh Tran           : RI-MP2 g-tensors
   Willem Van den Heuvel  : Paramagnetic NMR
   Zikuan Wang            : NOTCH, Electric field optimization 
   Frank Wennmohs         : Technical directorship and infrastructure
   Hang Xu                : AUTO-CI-Response properties 


 We gratefully acknowledge several colleagues who have allowed us to
 interface, adapt or use parts of their codes:
   Stefan Grimme, W. Hujo, H. Kruse, P. Pracht,  : VdW corrections, initial TS optimization,
                  C. Bannwarth, S. Ehlert,         DFT functionals, gCP, sTDA/sTD-DF
                  L. Wittmann, M. Mueller
   Ed Valeev, F. Pavosevic, A. Kumar             : LibInt (2-el integral package), F12 methods
   Garnet Chan, S. Sharma, J. Yang, R. Olivares  : DMRG
   Ulf Ekstrom                                   : XCFun DFT Library
   Mihaly Kallay                                 : mrcc  (arbitrary order and MRCC methods)
   Frank Weinhold                                : gennbo (NPA and NBO analysis)
   Simon Mueller                                 : openCOSMO-RS
   Christopher J. Cramer and Donald G. Truhlar   : smd solvation model
   Lars Goerigk                                  : TD-DFT with DH, B97 family of functionals
   V. Asgeirsson, H. Jonsson                     : NEB implementation
   FAccTs GmbH                                   : IRC, NEB, NEB-TS, DLPNO-Multilevel, CI-OPT
                                                   MM, QMMM, 2- and 3-layer-ONIOM, Crystal-QMMM,
                                                   LR-CPCM, SF, NACMEs, symmetry and pop. for TD-DFT,
                                                   nearIR, NL-DFT gradient (VV10), updates on ESD,
                                                   ML-optimized integration grids, MBIS, APM,
                                                   GOAT, DOCKER, SOLVATOR, interface openCOSMO-RS
   S Lehtola, MJT Oliveira, MAL Marques          : LibXC Library
   Liviu Ungur et al                             : ANISO software


 Your calculation uses the libint2 library for the computation of 2-el integrals
 For citations please refer to: http://libint.valeyev.net

 Your ORCA version has been built with support for libXC version: 6.2.2
 For citations please refer to: https://libxc.gitlab.io

 This ORCA versions uses:
   CBLAS   interface :  Fast vector & matrix operations
   LAPACKE interface :  Fast linear algebra routines
   SCALAPACK package :  Parallel linear algebra routines
   Shared memory     :  Shared parallel matrices
   BLAS/LAPACK       :  OpenBLAS 0.3.27  USE64BITINT DYNAMIC_ARCH NO_AFFINITY SapphireRapids SINGLE_THREADED
        Core in use  :  SapphireRapids
   Copyright (c) 2011-2014, The OpenBLAS Project


Your calculation utilizes the geometrical counterpoise correction gCP
Please cite in your paper:
H.Kruse, S. Grimme J.Chem.Phys., 136, (2012), 154101 
   

Your calculation utilizes the atom-pairwise dispersion correction
based on EEQ partial charges (D4)


================================================================================

----- Orbital basis set information -----
Your calculation utilizes the basis: def2-SV(P)
   F. Weigend and R. Ahlrichs, Phys. Chem. Chem. Phys. 7, 3297 (2005).

----- AuxJ basis set information -----
Your calculation utilizes the auxiliary basis: def2/J
   F. Weigend, Phys. Chem. Chem. Phys. 8, 1057 (2006).

================================================================================
                                        WARNINGS
                       Please study these warnings very carefully!
================================================================================


================================================================================
                                       INPUT FILE
================================================================================
NAME = sp.inp
|  1> ! pbe def2-sv(p) def2/J RI DEFGRID1 loosescf d4 GCP(DFT/SV(P)) printgap
|  2> %output
|  3>     printlevel normal
|  4> end
|  5> * xyz 0 1
|  6> C 4.4921888402 1.8142631698 -0.7162050742
|  7> C 4.5356706148 0.3120574065 -0.9085037164
|  8> O 3.2234306844 -0.2485821869 -1.0933249436
|  9> P 2.1478714677 -0.3006855262 0.0727633469
| 10> S 2.8638876709 -0.7001774027 1.8561560831
| 11> O 1.0850774267 -1.3196295707 -0.5033779781
| 12> C 1.1129648159 -2.7312529827 -0.2171463238
| 13> C 2.3402640438 -3.4016930066 -0.7958269174
| 14> S 1.0578912179 1.4942643902 -0.1400595487
| 15> C 0.240355968 1.4255643388 1.4765803603
| 16> S -0.9161681405 0.0363790424 1.6518531475
| 17> P -2.1474888636 0.3518483028 -0.05254053
| 18> S -1.6787092862 -0.4171201426 -1.7983312286
| 19> O -2.2585871939 1.9280989473 0.0192489741
| 20> C -2.6239928904 2.717555909 -1.132729539
| 21> C -4.0803500083 2.5267189737 -1.499091963
| 22> O -3.580144408 -0.1145678883 0.4626247344
| 23> C -4.0361596635 -1.4677144702 0.3173172422
| 24> C -3.272077728 -2.4128249182 1.2225333751
| 25> H 3.9325429329 2.2819469034 -1.5225809608
| 26> H 4.0098532909 2.0551592596 0.230311553
| 27> H 5.504822807 2.2043894512 -0.7051479531
| 28> H 4.998907092 -0.1728343371 -0.0431101863
| 29> H 5.0680352822 0.0364730192 -1.8197486229
| 30> H 1.0699185236 -2.8623381041 0.8693755688
| 31> H 0.1942645697 -3.1030789799 -0.6750406444
| 32> H 2.2694567292 -4.4741713749 -0.6440676741
| 33> H 2.4153049486 -3.1883833704 -1.8591560442
| 34> H 3.2344996736 -3.0302063498 -0.2960855912
| 35> H -0.2909216536 2.3646195108 1.604284614
| 36> H 0.9891179993 1.2813133426 2.2566369609
| 37> H -2.411460002 3.7422685195 -0.8256776253
| 38> H -1.9725918277 2.4369766469 -1.9666797767
| 39> H -4.3422255322 3.2085838533 -2.301967427
| 40> H -4.2447426837 1.5036880177 -1.834931948
| 41> H -4.7128302531 2.7193794433 -0.6366847027
| 42> H -5.0941053641 -1.4230026365 0.578180311
| 43> H -3.921105308 -1.7612722993 -0.7318367094
| 44> H -3.3410439589 -2.085802941 2.2568108955
| 45> H -3.6773720642 -3.4151648578 1.1300979415
| 46> H -2.2200647156 -2.4263280109 0.9343478145
| 47> *
| 48> 
| 49>                          ****END OF INPUT****
================================================================================

                       ****************************
                       * Single Point Calculation *
                       ****************************

---------------------------------
CARTESIAN COORDINATES (ANGSTROEM)
---------------------------------
  C      4.492189    1.814263   -0.716205
  C      4.535671    0.312057   -0.908504
  O      3.223431   -0.248582   -1.093325
  P      2.147871   -0.300686    0.072763
  S      2.863888   -0.700177    1.856156
  O      1.085077   -1.319630   -0.503378
  C      1.112965   -2.731253   -0.217146
  C      2.340264   -3.401693   -0.795827
  S      1.057891    1.494264   -0.140060
  C      0.240356    1.425564    1.476580
  S     -0.916168    0.036379    1.651853
  P     -2.147489    0.351848   -0.052541
  S     -1.678709   -0.417120   -1.798331
  O     -2.258587    1.928099    0.019249
  C     -2.623993    2.717556   -1.132730
  C     -4.080350    2.526719   -1.499092
  O     -3.580144   -0.114568    0.462625
  C     -4.036160   -1.467714    0.317317
  C     -3.272078   -2.412825    1.222533
  H      3.932543    2.281947   -1.522581
  H      4.009853    2.055159    0.230312
  H      5.504823    2.204389   -0.705148
  H      4.998907   -0.172834   -0.043110
  H      5.068035    0.036473   -1.819749
  H      1.069919   -2.862338    0.869376
  H      0.194265   -3.103079   -0.675041
  H      2.269457   -4.474171   -0.644068
  H      2.415305   -3.188383   -1.859156
  H      3.234500   -3.030206   -0.296086
  H     -0.290922    2.364620    1.604285
  H      0.989118    1.281313    2.256637
  H     -2.411460    3.742269   -0.825678
  H     -1.972592    2.436977   -1.966680
  H     -4.342226    3.208584   -2.301967
  H     -4.244743    1.503688   -1.834932
  H     -4.712830    2.719379   -0.636685
  H     -5.094105   -1.423003    0.578180
  H     -3.921105   -1.761272   -0.731837
  H     -3.341044   -2.085803    2.256811
  H     -3.677372   -3.415165    1.130098
  H     -2.220065   -2.426328    0.934348

----------------------------
CARTESIAN COORDINATES (A.U.)
----------------------------
  NO LB      ZA    FRAG     MASS         X           Y           Z
   0 C     6.0000    0    12.011    8.489007    3.428461   -1.353431
   1 C     6.0000    0    12.011    8.571175    0.589703   -1.716823
   2 O     8.0000    0    15.999    6.091401   -0.469752   -2.066085
   3 P    15.0000    0    30.974    4.058889   -0.568213    0.137503
   4 S    16.0000    0    32.060    5.411963   -1.323144    3.507627
   5 O     8.0000    0    15.999    2.050499   -2.493738   -0.951247
   6 C     6.0000    0    12.011    2.103199   -5.161320   -0.410347
   7 C     6.0000    0    12.011    4.422458   -6.428268   -1.503895
   8 S    16.0000    0    32.060    1.999125    2.823750   -0.264674
   9 C     6.0000    0    12.011    0.454207    2.693926    2.790332
  10 S    16.0000    0    32.060   -1.731307    0.068746    3.121550
  11 P    15.0000    0    30.974   -4.058166    0.664897   -0.099287
  12 S    16.0000    0    32.060   -3.172301   -0.788243   -3.398354
  13 O     8.0000    0    15.999   -4.268111    3.643579    0.036375
  14 C     6.0000    0    12.011   -4.958628    5.135436   -2.140549
  15 C     6.0000    0    12.011   -7.710744    4.774807   -2.832873
  16 O     8.0000    0    15.999   -6.765492   -0.216502    0.874234
  17 C     6.0000    0    12.011   -7.627236   -2.773578    0.599643
  18 C     6.0000    0    12.011   -6.183331   -4.559578    2.310253
  19 H     1.0000    0     1.008    7.431429    4.312255   -2.877261
  20 H     1.0000    0     1.008    7.577525    3.883688    0.435226
  21 H     1.0000    0     1.008   10.402608    4.165692   -1.332537
  22 H     1.0000    0     1.008    9.446565   -0.326610   -0.081466
  23 H     1.0000    0     1.008    9.577199    0.068924   -3.438827
  24 H     1.0000    0     1.008    2.021853   -5.409035    1.642882
  25 H     1.0000    0     1.008    0.367107   -5.863969   -1.275642
  26 H     1.0000    0     1.008    4.288652   -8.454959   -1.217112
  27 H     1.0000    0     1.008    4.564265   -6.025171   -3.513296
  28 H     1.0000    0     1.008    6.112319   -5.726260   -0.559521
  29 H     1.0000    0     1.008   -0.549762    4.468483    3.031659
  30 H     1.0000    0     1.008    1.869162    2.421331    4.264426
  31 H     1.0000    0     1.008   -4.556999    7.071863   -1.560305
  32 H     1.0000    0     1.008   -3.727658    4.605218   -3.716486
  33 H     1.0000    0     1.008   -8.205617    6.063345   -4.350088
  34 H     1.0000    0     1.008   -8.021401    2.841559   -3.467519
  35 H     1.0000    0     1.008   -8.905958    5.138882   -1.203160
  36 H     1.0000    0     1.008   -9.626464   -2.689085    1.092602
  37 H     1.0000    0     1.008   -7.409815   -3.328322   -1.382971
  38 H     1.0000    0     1.008   -6.313658   -3.941596    4.264755
  39 H     1.0000    0     1.008   -6.949226   -6.453726    2.135576
  40 H     1.0000    0     1.008   -4.195314   -4.585095    1.765661

--------------------------------
INTERNAL COORDINATES (ANGSTROEM)
--------------------------------
 C      0   0   0     0.000000000000     0.00000000     0.00000000
 C      1   0   0     1.515087980220     0.00000000     0.00000000
 O      2   1   0     1.438905582256   112.11372098     0.00000000
 P      3   2   1     1.587231642778   122.43931425   291.14718224
 S      4   3   2     1.962845540068   115.27683370   321.72551844
 O      4   3   2     1.581049324272   102.06078951   194.54925880
 C      6   4   3     1.440620326008   123.09894537    93.56300390
 C      7   6   4     1.513480905020   111.94968229   294.67739715
 S      4   3   2     2.110733458358   104.35548403    91.37079280
 C      9   4   3     1.812900487413    96.35758370   193.92942118
 S     10   9   4     1.816068377349   113.71779132   294.40185789
 P     11  10   9     2.126177176365   100.24973765   306.10436452
 S     12  11  10     1.964396071450   121.07324374    87.95029609
 O     12  11  10     1.581790967916    98.75141760   319.56054342
 C     14  12  11     1.443543595481   121.77152798   159.55749398
 C     15  14  12     1.513808513799   111.57466832    70.59649416
 O     12  11  10     1.592306886836   102.60597127   214.70922638
 C     17  12  11     1.435294343557   121.95543116   269.32447584
 C     18  17  12     1.515411234728   111.54934741    69.82975462
 H      1   2   3     1.087278109189   110.31156634   307.40361022
 H      1   2   3     1.089298964364   110.01469246    67.37435098
 H      1   2   3     1.085241137298   109.32590234   186.98382935
 H      2   1   3     1.094812312115   110.54549780   238.98853588
 H      2   1   3     1.090745695954   111.74961027   116.12146931
 H      7   6   4     1.095247056801   108.27747367    57.34544392
 H      7   6   4     1.091756348001   103.53858833   174.10508153
 H      8   7   6     1.085474271551   109.34903436   185.69161191
 H      8   7   6     1.087106696783   110.06239320   306.11413356
 H      8   7   6     1.089679352331   109.82197065    66.07927276
 H     10   9   4     1.086457041804   107.01248032   173.00486549
 H     10   9   4     1.090844273744   109.46027979    52.07862883
 H     15  14  12     1.090636071509   103.87668855   191.39449277
 H     15  14  12     1.094769868862   108.48891551   308.21129475
 H     16  15  14     1.085415825729   109.38613091   174.29279159
 H     16  15  14     1.089222559528   109.76858916   293.84353764
 H     16  15  14     1.086690203888   110.21362460    53.74448595
 H     18  17  12     1.090549308447   104.20236746   190.64744401
 H     18  17  12     1.095507972542   108.43422234   307.78765819
 H     19  18  17     1.086935924414   110.41205451    55.96217766
 H     19  18  17     1.085123570317   109.68695606   176.83214926
 H     19  18  17     1.090854999122   109.64352596   296.54425118

---------------------------
INTERNAL COORDINATES (A.U.)
---------------------------
 C      0   0   0     0.000000000000     0.00000000     0.00000000
 C      1   0   0     2.863101351411     0.00000000     0.00000000
 O      2   1   0     2.719137483034   112.11372098     0.00000000
 P      3   2   1     2.999433115944   122.43931425   291.14718224
 S      4   3   2     3.709240513918   115.27683370   321.72551844
 O      4   3   2     2.987750227095   102.06078951   194.54925880
 C      6   4   3     2.722377879115   123.09894537    93.56300390
 C      7   6   4     2.860064419407   111.94968229   294.67739715
 S      4   3   2     3.988708178000   104.35548403    91.37079280
 C      9   4   3     3.425885429263    96.35758370   193.92942118
 S     10   9   4     3.431871873665   113.71779132   294.40185789
 P     11  10   9     4.017892575524   100.24973765   306.10436452
 S     12  11  10     3.712170593590   121.07324374    87.95029609
 O     12  11  10     2.989151730472    98.75141760   319.56054342
 C     14  12  11     2.727902057836   121.77152798   159.55749398
 C     15  14  12     2.860683510279   111.57466832    70.59649416
 O     12  11  10     3.009023937276   102.60597127   214.70922638
 C     17  12  11     2.712313230888   121.95543116   269.32447584
 C     18  17  12     2.863712213903   111.54934741    69.82975462
 H      1   2   3     2.054657857775   110.31156634   307.40361022
 H      1   2   3     2.058476720613   110.01469246    67.37435098
 H      1   2   3     2.050808538758   109.32590234   186.98382935
 H      2   1   3     2.068895437943   110.54549780   238.98853588
 H      2   1   3     2.061210647106   111.74961027   116.12146931
 H      7   6   4     2.069716986338   108.27747367    57.34544392
 H      7   6   4     2.063120502691   103.53858833   174.10508153
 H      8   7   6     2.051249098649   109.34903436   185.69161191
 H      8   7   6     2.054333935271   110.06239320   306.11413356
 H      8   7   6     2.059195549694   109.82197065    66.07927276
 H     10   9   4     2.053106265280   107.01248032   173.00486549
 H     10   9   4     2.061396932133   109.46027979    52.07862883
 H     15  14  12     2.061003486927   103.87668855   191.39449277
 H     15  14  12     2.068815231817   108.48891551   308.21129475
 H     16  15  14     2.051138652052   109.38613091   174.29279159
 H     16  15  14     2.058332336396   109.76858916   293.84353764
 H     16  15  14     2.053546877764   110.21362460    53.74448595
 H     18  17  12     2.060839528502   104.20236746   190.64744401
 H     18  17  12     2.070210045632   108.43422234   307.78765819
 H     19  18  17     2.054011222262   110.41205451    55.96217766
 H     19  18  17     2.050586369362   109.68695606   176.83214926
 H     19  18  17     2.061417200160   109.64352596   296.54425118

---------------------
BASIS SET INFORMATION
---------------------
There are 5 groups of distinct atoms

 Group   1 Type C   : 7s4p1d contracted to 3s2p1d pattern {511/31/1}
 Group   2 Type O   : 7s4p1d contracted to 3s2p1d pattern {511/31/1}
 Group   3 Type P   : 10s7p1d contracted to 4s3p1d pattern {5311/511/1}
 Group   4 Type S   : 10s7p1d contracted to 4s3p1d pattern {5311/511/1}
 Group   5 Type H   : 4s contracted to 2s pattern {31}

Atom   0C    basis set group =>   1
Atom   1C    basis set group =>   1
Atom   2O    basis set group =>   2
Atom   3P    basis set group =>   3
Atom   4S    basis set group =>   4
Atom   5O    basis set group =>   2
Atom   6C    basis set group =>   1
Atom   7C    basis set group =>   1
Atom   8S    basis set group =>   4
Atom   9C    basis set group =>   1
Atom  10S    basis set group =>   4
Atom  11P    basis set group =>   3
Atom  12S    basis set group =>   4
Atom  13O    basis set group =>   2
Atom  14C    basis set group =>   1
Atom  15C    basis set group =>   1
Atom  16O    basis set group =>   2
Atom  17C    basis set group =>   1
Atom  18C    basis set group =>   1
Atom  19H    basis set group =>   5
Atom  20H    basis set group =>   5
Atom  21H    basis set group =>   5
Atom  22H    basis set group =>   5
Atom  23H    basis set group =>   5
Atom  24H    basis set group =>   5
Atom  25H    basis set group =>   5
Atom  26H    basis set group =>   5
Atom  27H    basis set group =>   5
Atom  28H    basis set group =>   5
Atom  29H    basis set group =>   5
Atom  30H    basis set group =>   5
Atom  31H    basis set group =>   5
Atom  32H    basis set group =>   5
Atom  33H    basis set group =>   5
Atom  34H    basis set group =>   5
Atom  35H    basis set group =>   5
Atom  36H    basis set group =>   5
Atom  37H    basis set group =>   5
Atom  38H    basis set group =>   5
Atom  39H    basis set group =>   5
Atom  40H    basis set group =>   5
---------------------------------
AUXILIARY/J BASIS SET INFORMATION
---------------------------------
There are 5 groups of distinct atoms

 Group   1 Type C   : 12s5p4d2f1g contracted to 6s4p3d1f1g pattern {711111/2111/211/2/1}
 Group   2 Type O   : 12s5p4d2f1g contracted to 6s4p3d1f1g pattern {711111/2111/211/2/1}
 Group   3 Type P   : 14s5p5d2f1g contracted to 8s4p3d1f1g pattern {71111111/2111/311/2/1}
 Group   4 Type S   : 14s5p5d2f1g contracted to 8s4p3d1f1g pattern {71111111/2111/311/2/1}
 Group   5 Type H   : 5s2p1d contracted to 3s1p1d pattern {311/2/1}

Atom   0C    basis set group =>   1
Atom   1C    basis set group =>   1
Atom   2O    basis set group =>   2
Atom   3P    basis set group =>   3
Atom   4S    basis set group =>   4
Atom   5O    basis set group =>   2
Atom   6C    basis set group =>   1
Atom   7C    basis set group =>   1
Atom   8S    basis set group =>   4
Atom   9C    basis set group =>   1
Atom  10S    basis set group =>   4
Atom  11P    basis set group =>   3
Atom  12S    basis set group =>   4
Atom  13O    basis set group =>   2
Atom  14C    basis set group =>   1
Atom  15C    basis set group =>   1
Atom  16O    basis set group =>   2
Atom  17C    basis set group =>   1
Atom  18C    basis set group =>   1
Atom  19H    basis set group =>   5
Atom  20H    basis set group =>   5
Atom  21H    basis set group =>   5
Atom  22H    basis set group =>   5
Atom  23H    basis set group =>   5
Atom  24H    basis set group =>   5
Atom  25H    basis set group =>   5
Atom  26H    basis set group =>   5
Atom  27H    basis set group =>   5
Atom  28H    basis set group =>   5
Atom  29H    basis set group =>   5
Atom  30H    basis set group =>   5
Atom  31H    basis set group =>   5
Atom  32H    basis set group =>   5
Atom  33H    basis set group =>   5
Atom  34H    basis set group =>   5
Atom  35H    basis set group =>   5
Atom  36H    basis set group =>   5
Atom  37H    basis set group =>   5
Atom  38H    basis set group =>   5
Atom  39H    basis set group =>   5
Atom  40H    basis set group =>   5
------------------------------------------------------------------------------
                             ORCA STARTUP CALCULATIONS
                           -- RI-GTO INTEGRALS CHOSEN --
------------------------------------------------------------------------------
------------------------------------------------------------------------------
                   ___                                                        
                  /   \      - P O W E R E D   B Y -                         
                 /     \                                                     
                 |  |  |   _    _      __       _____    __    __             
                 |  |  |  | |  | |    /  \     |  _  \  |  |  /  |          
                  \  \/   | |  | |   /    \    | | | |  |  | /  /          
                 / \  \   | |__| |  /  /\  \   | |_| |  |  |/  /          
                |  |  |   |  __  | /  /__\  \  |    /   |      \           
                |  |  |   | |  | | |   __   |  |    \   |  |\   \          
                \     /   | |  | | |  |  |  |  | |\  \  |  | \   \       
                 \___/    |_|  |_| |__|  |__|  |_| \__\ |__|  \__/        
                                                                              
                      - O R C A' S   B I G   F R I E N D -                    
                                      &                                       
                       - I N T E G R A L  F E E D E R -                       
                                                                              
 v1 FN, 2020, v2 2021, v3 2022-2024                                           
------------------------------------------------------------------------------


----------------------
SHARK INTEGRAL PACKAGE
----------------------

Number of atoms                             ...     41
Number of basis functions                   ...    334
Number of shells                            ...    170
Maximum angular momentum                    ...      2
Integral batch strategy                     ... SHARK/LIBINT Hybrid
RI-J (if used) integral strategy            ... SPLIT-RIJ (Revised 2003 algorithm where possible)
Printlevel                                  ...      1
Contraction scheme used                     ... SEGMENTED contraction
Prescreening option                         ... SCHWARTZ
   Thresh                                   ... 1.000e-09
   Tcut                                     ... 1.000e-10
   Tpresel                                  ... 1.000e-10 
Coulomb Range Separation                    ... NOT USED
Exchange Range Separation                   ... NOT USED
Multipole approximations                    ... NOT USED
Finite Nucleus Model                        ... NOT USED
CABS basis                                  ... NOT available
Auxiliary Coulomb fitting basis             ... AVAILABLE
   # of basis functions in Aux-J            ...   1185
   # of shells in Aux-J                     ...    407
   Maximum angular momentum in Aux-J        ...      4
Auxiliary J/K fitting basis                 ... NOT available
Auxiliary Correlation fitting basis         ... NOT available
Auxiliary 'external' fitting basis          ... NOT available

Checking pre-screening integrals            ... done (  0.0 sec) Dimension = 170
Check shell pair data                       ... done (  0.0 sec)
Shell pair information
Shell pair cut-off parameter TPreSel        ...   1.0e-10
Total number of shell pairs                 ...     14535
Shell pairs after pre-screening             ...     10273
Total number of primitive shell pairs       ...     62501
Primitive shell pairs kept                  ...     25635
          la=0 lb=0:   3975 shell pairs
          la=1 lb=0:   3509 shell pairs
          la=1 lb=1:    804 shell pairs
          la=2 lb=0:   1284 shell pairs
          la=2 lb=1:    594 shell pairs
          la=2 lb=2:    107 shell pairs

Calculating one electron integrals          ... done (  0.1 sec)
Calculating RI/J V-Matrix + Cholesky decomp.... done (  0.1 sec)
Calculating Nuclear repulsion               ... done (  0.0 sec) ENN=   2805.218387148562 Eh

Diagonalization of the overlap matrix:
Smallest eigenvalue                        ... 3.181e-03
Time for diagonalization                   ...    0.010 sec
Threshold for overlap eigenvalues          ... 1.000e-07
Number of eigenvalues below threshold      ... 0
Time for construction of square roots      ...    0.024 sec
Total time needed                          ...    0.043 sec

-------------------
DFT GRID GENERATION
-------------------

General Integration Accuracy     IntAcc      ... 4.159
Radial Grid Type                 RadialGrid  ... OptM3 with GC (2021)
Angular Grid (max. ang.)         AngularGrid ... 3 (Lebedev-194)
Angular grid pruning method      GridPruning ... 4 (adaptive)
Weight generation scheme         WeightScheme... mBecke (2022)
Basis function cutoff            BFCut       ... 1.0000e-10
Integration weight cutoff        WCut        ... 1.0000e-14
Partially contracted basis set               ... off
Rotationally invariant grid construction     ... off
Angular grids for H and He will be reduced by one unit

Total number of grid points                  ...    97428
Total number of batches                      ...     1544
Average number of points per batch           ...       63
Average number of grid points per atom       ...     2376
Initializing property integral containers    ... done (  0.0 sec)

SHARK setup successfully completed in   1.6 seconds

Maximum memory used throughout the entire STARTUP-calculation: 51.5 MB
-------------------------------------------------------------------------------
                                 ORCA GUESS
                   Start orbitals & Density for SCF / CASSCF
-------------------------------------------------------------------------------

------------
SCF SETTINGS
------------
Hamiltonian:
 Density Functional     Method          .... DFT(GTOs)
 Exchange Functional    Exchange        .... PBE
   PBE kappa parameter   XKappa         ....  0.804000
   PBE mue parameter    XMuePBE         ....  0.219520
 Correlation Functional Correlation     .... PBE
   PBE beta parameter  CBetaPBE         ....  0.066725
 LDA part of GGA corr.  LDAOpt          .... PW91-LDA
 Gradients option       PostSCFGGA      .... off
   NL short-range parameter             ....  6.400000
 RI-approximation to the Coulomb term is turned on
   Number of AuxJ basis functions       .... 1185


General Settings:
 Integral files         IntName         .... sp
 Hartree-Fock type      HFTyp           .... RHF
 Total Charge           Charge          ....    0
 Multiplicity           Mult            ....    1
 Number of Electrons    NEL             ....  202
 Basis Dimension        Dim             ....  334
 Nuclear Repulsion      ENuc            ....   2805.2183871486 Eh

Convergence Acceleration:
 AO-DIIS                CNVDIIS         .... on
   Start iteration      DIISMaxIt       ....    12
   Startup error        DIISStart       ....  0.200000
   # of expansion vecs  DIISMaxEq       ....     5
   Bias factor          DIISBfac        ....   1.050
   Max. coefficient     DIISMaxC        ....  10.000
 MO-DIIS                CNVKDIIS        .... off
 Trust-Rad. Augm. Hess. CNVTRAH         .... auto
   Auto Start mean grad. ratio tolernc. ....  1.125000
   Auto Start start iteration           ....    50
   Auto Start num. interpolation iter.  ....    10
   Max. Number of Micro iterations      ....    24
   Max. Number of Macro iterations      .... Maxiter - #DIIS iter
   Number of Davidson start vectors     ....     2
   Converg. threshold    (grad. norm)   ....   1.000e-04
   Grad. Scal. Fac. for Micro threshold ....   0.100
   Minimum threshold for Micro iter.    ....   1.000e-02
   NR start threshold (gradient norm)   ....   1.000e-04
   Initial trust radius                 ....   0.400
   Minimum AH scaling param. (alpha)    ....   1.000
   Maximum AH scaling param. (alpha)    .... 1000.000
   Quad. conv. algorithm                .... NR
   White noise on init. David. guess    .... on
   Maximum white noise                  ....   0.010
   Pseudo random numbers                .... off
   Inactive MOs                         .... canonical
   Orbital update algorithm             .... Taylor
   Preconditioner                       .... Diag
   Full preconditioner red. dimension   ....   250
 SOSCF                  CNVSOSCF        .... on
   Start iteration      SOSCFMaxIt      ....   150
   Startup grad/error   SOSCFStart      ....  0.003300
   Hessian update       SOSCFHessUp     .... L-BFGS
 Level Shifting         CNVShift        .... on
   Level shift para.    LevelShift      ....    0.2500
   Turn off err/grad.   ShiftErr        ....    0.0010
 Zerner damping         CNVZerner       .... off
 Static damping         CNVDamp         .... on
   Fraction old density DampFac         ....    0.7000
   Max. Damping (<1)    DampMax         ....    0.9800
   Min. Damping (>=0)   DampMin         ....    0.0000
   Turn off err/grad.   DampErr         ....    0.1000

SCF Procedure:
 Maximum # iterations   MaxIter         ....   125
 SCF integral mode      SCFMode         .... Direct
   Integral package                     .... SHARK and LIBINT hybrid scheme
 Reset frequency        DirectResetFreq ....    20
 Integral Threshold     Thresh          ....  1.000e-09 Eh
 Primitive CutOff       TCut            ....  1.000e-10 Eh

Convergence Tolerance:
 Convergence Check Mode ConvCheckMode   .... Total+1el-Energy
 Convergence forced     ConvForced      .... 0
 Energy Change          TolE            ....  1.000e-05 Eh
 1-El. energy change                    ....  1.000e-02 Eh
 Orbital Gradient       TolG            ....  1.000e-04
 Orbital Rotation angle TolX            ....  1.000e-04
 DIIS Error             TolErr          ....  5.000e-04

------------------------------
INITIAL GUESS: MODEL POTENTIAL
------------------------------
Loading Hartree-Fock densities                     ... done
Calculating cut-offs                               ... done
Initializing the effective Hamiltonian             ... done
Setting up the integral package (SHARK)            ... done
Starting the Coulomb interaction                   ... done (   0.6 sec)
Making the grid                                    ... done (   0.5 sec)
Mapping shells                                     ... done
Starting the XC term evaluation                    ... done (   0.4 sec)
  promolecular density results
     # of electrons  =    201.984976469
     EX              =   -229.999400242
     EC              =     -7.288719732
     EX+EC           =   -237.288119974
Transforming the Hamiltonian                       ... done (   0.0 sec)
Diagonalizing the Hamiltonian                      ... done (   0.0 sec)
Back transforming the eigenvectors                 ... done (   0.0 sec)
Now organizing SCF variables                       ... done
                      ------------------
                      INITIAL GUESS DONE (   1.6 sec)
                      ------------------
             **** ENERGY FILE WAS UPDATED (sp.en.tmp) ****
Finished Guess after   1.9 sec
Maximum memory used throughout the entire GUESS-calculation: 39.2 MB

-------------------------------------------------------------------------------------------
                                      ORCA LEAN-SCF
                              memory conserving SCF solver
-------------------------------------------------------------------------------------------

----------------------------------------D-I-I-S--------------------------------------------
Iteration    Energy (Eh)           Delta-E    RMSDP     MaxDP     DIISErr   Damp  Time(sec)
-------------------------------------------------------------------------------------------
               ***  Starting incremental Fock matrix formation  ***
    1    -2929.1974274533467906     0.00e+00  2.65e-03  1.37e-01  1.81e-01  0.700   2.1
    2    -2929.4185101310740720    -2.21e-01  1.72e-03  7.07e-02  7.55e-02  0.700   2.0
                               ***Turning on AO-DIIS***
    3    -2929.4894877385368090    -7.10e-02  6.85e-04  1.55e-02  2.21e-02  0.700   1.9
    4    -2929.5340091190319072    -4.45e-02  1.04e-03  3.03e-02  1.09e-02  0.000   1.9
    5    -2929.6373611518656617    -1.03e-01  3.06e-04  9.53e-03  8.14e-03  0.000   1.9
                              *** Initializing SOSCF ***
---------------------------------------S-O-S-C-F--------------------------------------
Iteration    Energy (Eh)           Delta-E    RMSDP     MaxDP     MaxGrad    Time(sec)
--------------------------------------------------------------------------------------
    6    -2929.6384102134816203    -1.05e-03  1.08e-04  3.25e-03  2.55e-03     1.9
               *** Restarting incremental Fock matrix formation ***
    7    -2929.6385410464927190    -1.31e-04  6.98e-05  1.53e-03  2.18e-04     2.2
    8    -2929.6385464722170582    -5.43e-06  2.55e-05  6.89e-04  1.45e-04     1.9
                 **** Energy Check signals convergence ****

               *****************************************************
               *                     SUCCESS                       *
               *           SCF CONVERGED AFTER   8 CYCLES          *
               *****************************************************

             **** ENERGY FILE WAS UPDATED (sp.en.tmp) ****

----------------
TOTAL SCF ENERGY
----------------

Total Energy       :      -2929.63854647221706 Eh          -79719.51771 eV

Components:
Nuclear Repulsion  :       2805.21838714856221 Eh           76333.87305 eV
Electronic Energy  :      -5734.85693362077927 Eh         -156053.39076 eV
One Electron Energy:      -9629.52630758490523 Eh         -262032.73232 eV
Two Electron Energy:       3894.66937396412595 Eh          105979.34155 eV

Virial components:
Potential Energy   :      -5848.92704367661918 Eh         -159157.39626 eV
Kinetic Energy     :       2919.28849720440212 Eh           79437.87855 eV
Virial Ratio       :          2.00354540131190

DFT components:
N(Alpha)           :      100.999568310301 electrons
N(Beta)            :      100.999568310301 electrons
N(Total)           :      201.999136620603 electrons
E(X)               :     -231.805469000615 Eh       
E(C)               :       -7.296807356688 Eh       
E(XC)              :     -239.102276357303 Eh       

---------------
SCF CONVERGENCE
---------------

  Last Energy change         ...    5.4257e-06  Tolerance :   1.0000e-05
  Last MAX-Density change    ...    6.8873e-04  Tolerance :   1.0000e-03
  Last RMS-Density change    ...    2.5543e-05  Tolerance :   1.0000e-04
  Last DIIS Error            ...    2.5493e-03  Tolerance :   5.0000e-04
  Last Orbital Gradient      ...    1.4501e-04  Tolerance :   1.0000e-04
  Last Orbital Rotation      ...    2.9547e-04  Tolerance :   1.0000e-04


----------------
ORBITAL ENERGIES
----------------

  NO   OCC          E(Eh)            E(eV) 
   0   2.0000     -88.041080     -2395.7196 
   1   2.0000     -88.037198     -2395.6139 
   2   2.0000     -87.987327     -2394.2569 
   3   2.0000     -87.981716     -2394.1042 
   4   2.0000     -76.424233     -2079.6091 
   5   2.0000     -76.423516     -2079.5896 
   6   2.0000     -18.793614      -511.4002 
   7   2.0000     -18.792853      -511.3795 
   8   2.0000     -18.788851      -511.2706 
   9   2.0000     -18.782054      -511.0857 
  10   2.0000      -9.954500      -270.8757 
  11   2.0000      -9.952266      -270.8149 
  12   2.0000      -9.952173      -270.8124 
  13   2.0000      -9.950846      -270.7763 
  14   2.0000      -9.944009      -270.5902 
  15   2.0000      -9.886614      -269.0284 
  16   2.0000      -9.883939      -268.9556 
  17   2.0000      -9.883272      -268.9375 
  18   2.0000      -9.878529      -268.8084 
  19   2.0000      -7.686177      -209.1515 
  20   2.0000      -7.682205      -209.0434 
  21   2.0000      -7.632283      -207.6850 
  22   2.0000      -7.626654      -207.5318 
  23   2.0000      -6.421767      -174.7452 
  24   2.0000      -6.421032      -174.7252 
  25   2.0000      -5.714029      -155.4866 
  26   2.0000      -5.710821      -155.3993 
  27   2.0000      -5.710391      -155.3876 
  28   2.0000      -5.706729      -155.2880 
  29   2.0000      -5.702976      -155.1859 
  30   2.0000      -5.698855      -155.0737 
  31   2.0000      -5.660986      -154.0433 
  32   2.0000      -5.655467      -153.8931 
  33   2.0000      -5.653047      -153.8272 
  34   2.0000      -5.652540      -153.8134 
  35   2.0000      -5.647481      -153.6758 
  36   2.0000      -5.646746      -153.6558 
  37   2.0000      -4.644129      -126.3732 
  38   2.0000      -4.643704      -126.3616 
  39   2.0000      -4.643473      -126.3553 
  40   2.0000      -4.642822      -126.3376 
  41   2.0000      -4.642482      -126.3284 
  42   2.0000      -4.641358      -126.2978 
  43   2.0000      -0.986575       -26.8461 
  44   2.0000      -0.983794       -26.7704 
  45   2.0000      -0.946790       -25.7635 
  46   2.0000      -0.942135       -25.6368 
  47   2.0000      -0.762256       -20.7420 
  48   2.0000      -0.718436       -19.5496 
  49   2.0000      -0.705342       -19.1933 
  50   2.0000      -0.687468       -18.7070 
  51   2.0000      -0.684077       -18.6147 
  52   2.0000      -0.670755       -18.2522 
  53   2.0000      -0.650721       -17.7070 
  54   2.0000      -0.637310       -17.3421 
  55   2.0000      -0.601473       -16.3669 
  56   2.0000      -0.593783       -16.1576 
  57   2.0000      -0.572770       -15.5859 
  58   2.0000      -0.569390       -15.4939 
  59   2.0000      -0.559145       -15.2151 
  60   2.0000      -0.494723       -13.4621 
  61   2.0000      -0.488640       -13.2966 
  62   2.0000      -0.474357       -12.9079 
  63   2.0000      -0.469272       -12.7695 
  64   2.0000      -0.456198       -12.4138 
  65   2.0000      -0.440762       -11.9938 
  66   2.0000      -0.438708       -11.9379 
  67   2.0000      -0.436854       -11.8874 
  68   2.0000      -0.423191       -11.5156 
  69   2.0000      -0.414436       -11.2774 
  70   2.0000      -0.409209       -11.1351 
  71   2.0000      -0.393284       -10.7018 
  72   2.0000      -0.389893       -10.6095 
  73   2.0000      -0.388527       -10.5724 
  74   2.0000      -0.383056       -10.4235 
  75   2.0000      -0.376133       -10.2351 
  76   2.0000      -0.369958       -10.0671 
  77   2.0000      -0.357584        -9.7303 
  78   2.0000      -0.354701        -9.6519 
  79   2.0000      -0.350135        -9.5277 
  80   2.0000      -0.346878        -9.4390 
  81   2.0000      -0.345380        -9.3983 
  82   2.0000      -0.342257        -9.3133 
  83   2.0000      -0.337248        -9.1770 
  84   2.0000      -0.329834        -8.9752 
  85   2.0000      -0.319151        -8.6845 
  86   2.0000      -0.306105        -8.3295 
  87   2.0000      -0.294753        -8.0206 
  88   2.0000      -0.294055        -8.0016 
  89   2.0000      -0.284713        -7.7474 
  90   2.0000      -0.279148        -7.5960 
  91   2.0000      -0.273305        -7.4370 
  92   2.0000      -0.269209        -7.3255 
  93   2.0000      -0.262686        -7.1481 
  94   2.0000      -0.259950        -7.0736 
  95   2.0000      -0.233218        -6.3462 
  96   2.0000      -0.216407        -5.8887 
  97   2.0000      -0.208973        -5.6864 
  98   2.0000      -0.204466        -5.5638 
  99   2.0000      -0.196026        -5.3341 
 100   2.0000      -0.190697        -5.1891 
 101   0.0000      -0.046175        -1.2565 
 102   0.0000      -0.021050        -0.5728 
 103   0.0000      -0.016679        -0.4539 
 104   0.0000       0.006387         0.1738 
 105   0.0000       0.020871         0.5679 
 106   0.0000       0.029959         0.8152 
 107   0.0000       0.036089         0.9820 
 108   0.0000       0.042908         1.1676 
 109   0.0000       0.049237         1.3398 
 110   0.0000       0.051460         1.4003 
 111   0.0000       0.056825         1.5463 
*Only the first 10 virtual orbitals were printed.

                    ********************************
                    * MULLIKEN POPULATION ANALYSIS *
                    ********************************

-----------------------
MULLIKEN ATOMIC CHARGES
-----------------------
   0 C :   -0.315663
   1 C :   -0.003896
   2 O :   -0.368839
   3 P :    0.620651
   4 S :   -0.342878
   5 O :   -0.343954
   6 C :   -0.009678
   7 C :   -0.304026
   8 S :   -0.082629
   9 C :   -0.341130
  10 S :   -0.098064
  11 P :    0.615847
  12 S :   -0.313329
  13 O :   -0.376830
  14 C :   -0.006132
  15 C :   -0.303545
  16 O :   -0.368669
  17 C :   -0.001836
  18 C :   -0.336503
  19 H :    0.119337
  20 H :    0.125311
  21 H :    0.113181
  22 H :    0.110983
  23 H :    0.106523
  24 H :    0.110125
  25 H :    0.110728
  26 H :    0.109271
  27 H :    0.118691
  28 H :    0.119325
  29 H :    0.186705
  30 H :    0.190252
  31 H :    0.102224
  32 H :    0.116254
  33 H :    0.111870
  34 H :    0.122838
  35 H :    0.116866
  36 H :    0.105376
  37 H :    0.107531
  38 H :    0.124283
  39 H :    0.115422
  40 H :    0.138010
Sum of atomic charges:   -0.0000000

--------------------------------
MULLIKEN REDUCED ORBITAL CHARGES
--------------------------------
  0 C s       :     3.106561  s :     3.106561
      pz      :     1.096576  p :     3.181089
      px      :     1.073240
      py      :     1.011273
      dz2     :     0.005747  d :     0.028013
      dxz     :     0.005243
      dyz     :     0.006117
      dx2y2   :     0.006366
      dxy     :     0.004540

  1 C s       :     3.075347  s :     3.075347
      pz      :     1.084474  p :     2.868103
      px      :     0.776731
      py      :     1.006897
      dz2     :     0.008964  d :     0.060446
      dxz     :     0.013112
      dyz     :     0.008511
      dx2y2   :     0.014219
      dxy     :     0.015640

  2 O s       :     3.758344  s :     3.758344
      pz      :     1.586181  p :     4.597366
      px      :     1.294711
      py      :     1.716473
      dz2     :     0.002779  d :     0.013129
      dxz     :     0.004313
      dyz     :     0.001910
      dx2y2   :     0.001847
      dxy     :     0.002280

  3 P s       :     5.199629  s :     5.199629
      pz      :     2.836874  p :     8.587530
      px      :     2.842100
      py      :     2.908556
      dz2     :     0.122945  d :     0.592190
      dxz     :     0.145797
      dyz     :     0.102466
      dx2y2   :     0.091509
      dxy     :     0.129473

  4 S s       :     5.923263  s :     5.923263
      pz      :     3.162677  p :    10.376901
      px      :     3.586599
      py      :     3.627624
      dz2     :     0.016732  d :     0.042714
      dxz     :     0.012488
      dyz     :     0.009293
      dx2y2   :     0.002025
      dxy     :     0.002177

  5 O s       :     3.755913  s :     3.755913
      pz      :     1.698625  p :     4.574463
      px      :     1.614683
      py      :     1.261155
      dz2     :     0.001941  d :     0.013578
      dxz     :     0.002300
      dyz     :     0.002795
      dx2y2   :     0.003099
      dxy     :     0.003443

  6 C s       :     3.089378  s :     3.089378
      pz      :     1.066588  p :     2.859872
      px      :     1.078140
      py      :     0.715143
      dz2     :     0.013861  d :     0.060428
      dxz     :     0.005598
      dyz     :     0.010471
      dx2y2   :     0.017671
      dxy     :     0.012826

  7 C s       :     3.095449  s :     3.095449
      pz      :     1.079102  p :     3.180553
      px      :     1.051526
      py      :     1.049925
      dz2     :     0.008658  d :     0.028023
      dxz     :     0.005367
      dyz     :     0.002201
      dx2y2   :     0.008034
      dxy     :     0.003764

  8 S s       :     5.886754  s :     5.886754
      pz      :     3.250558  p :    10.119791
      px      :     3.471108
      py      :     3.398125
      dz2     :     0.023543  d :     0.076083
      dxz     :     0.016799
      dyz     :     0.010620
      dx2y2   :     0.008755
      dxy     :     0.016366

  9 C s       :     3.203373  s :     3.203373
      pz      :     1.009420  p :     3.097462
      px      :     1.034299
      py      :     1.053742
      dz2     :     0.009118  d :     0.040295
      dxz     :     0.010571
      dyz     :     0.004066
      dx2y2   :     0.006943
      dxy     :     0.009597

 10 S s       :     5.878320  s :     5.878320
      pz      :     3.412188  p :    10.145786
      px      :     3.311761
      py      :     3.421838
      dz2     :     0.015315  d :     0.073958
      dxz     :     0.018552
      dyz     :     0.009090
      dx2y2   :     0.011673
      dxy     :     0.019328

 11 P s       :     5.211038  s :     5.211038
      pz      :     2.920924  p :     8.590889
      px      :     2.853825
      py      :     2.816139
      dz2     :     0.119818  d :     0.582225
      dxz     :     0.130647
      dyz     :     0.090857
      dx2y2   :     0.135025
      dxy     :     0.105879

 12 S s       :     5.921164  s :     5.921164
      pz      :     3.115322  p :    10.349236
      px      :     3.660070
      py      :     3.573844
      dz2     :     0.015755  d :     0.042929
      dxz     :     0.009140
      dyz     :     0.012658
      dx2y2   :     0.002464
      dxy     :     0.002912

 13 O s       :     3.755685  s :     3.755685
      pz      :     1.537702  p :     4.607990
      px      :     1.751542
      py      :     1.318746
      dz2     :     0.003480  d :     0.013156
      dxz     :     0.001764
      dyz     :     0.002989
      dx2y2   :     0.002985
      dxy     :     0.001937

 14 C s       :     3.080676  s :     3.080676
      pz      :     0.856777  p :     2.865528
      px      :     1.046432
      py      :     0.962318
      dz2     :     0.011980  d :     0.059929
      dxz     :     0.015381
      dyz     :     0.013158
      dx2y2   :     0.011670
      dxy     :     0.007741

 15 C s       :     3.099368  s :     3.099368
      pz      :     1.069640  p :     3.176270
      px      :     1.016028
      py      :     1.090602
      dz2     :     0.003562  d :     0.027907
      dxz     :     0.007097
      dyz     :     0.005983
      dx2y2   :     0.007848
      dxy     :     0.003417

 16 O s       :     3.758145  s :     3.758145
      pz      :     1.747318  p :     4.597409
      px      :     1.439359
      py      :     1.410733
      dz2     :     0.001916  d :     0.013115
      dxz     :     0.002362
      dyz     :     0.002016
      dx2y2   :     0.004619
      dxy     :     0.002201

 17 C s       :     3.072393  s :     3.072393
      pz      :     1.079457  p :     2.868572
      px      :     1.045172
      py      :     0.743943
      dz2     :     0.014114  d :     0.060871
      dxz     :     0.003926
      dyz     :     0.012282
      dx2y2   :     0.019223
      dxy     :     0.011326

 18 C s       :     3.116624  s :     3.116624
      pz      :     1.065606  p :     3.191869
      px      :     1.079722
      py      :     1.046542
      dz2     :     0.009499  d :     0.028010
      dxz     :     0.002961
      dyz     :     0.003881
      dx2y2   :     0.007386
      dxy     :     0.004283

 19 H s       :     0.880663  s :     0.880663

 20 H s       :     0.874689  s :     0.874689

 21 H s       :     0.886819  s :     0.886819

 22 H s       :     0.889017  s :     0.889017

 23 H s       :     0.893477  s :     0.893477

 24 H s       :     0.889875  s :     0.889875

 25 H s       :     0.889272  s :     0.889272

 26 H s       :     0.890729  s :     0.890729

 27 H s       :     0.881309  s :     0.881309

 28 H s       :     0.880675  s :     0.880675

 29 H s       :     0.813295  s :     0.813295

 30 H s       :     0.809748  s :     0.809748

 31 H s       :     0.897776  s :     0.897776

 32 H s       :     0.883746  s :     0.883746

 33 H s       :     0.888130  s :     0.888130

 34 H s       :     0.877162  s :     0.877162

 35 H s       :     0.883134  s :     0.883134

 36 H s       :     0.894624  s :     0.894624

 37 H s       :     0.892469  s :     0.892469

 38 H s       :     0.875717  s :     0.875717

 39 H s       :     0.884578  s :     0.884578

 40 H s       :     0.861990  s :     0.861990


------------------------
MULLIKEN OVERLAP CHARGES
------------------------
B(  0-C ,  1-C ) :   0.9367 B(  0-C ,  2-O ) :  -0.0919 B(  0-C , 19-H ) :   0.7306 
B(  0-C , 20-H ) :   0.7264 B(  0-C , 21-H ) :   0.6909 B(  0-C , 22-H ) :  -0.0697 
B(  1-C ,  2-O ) :   0.5587 B(  1-C ,  3-P ) :  -0.0781 B(  1-C , 22-H ) :   0.7206 
B(  1-C , 23-H ) :   0.7276 B(  2-O ,  3-P ) :   0.6454 B(  2-O ,  4-S ) :  -0.0711 
B(  2-O ,  5-O ) :  -0.0597 B(  2-O ,  8-S ) :  -0.0602 B(  2-O , 22-H ) :  -0.0679 
B(  2-O , 23-H ) :  -0.0576 B(  3-P ,  4-S ) :   0.9126 B(  3-P ,  5-O ) :   0.6577 
B(  3-P ,  6-C ) :  -0.0858 B(  3-P ,  8-S ) :   0.5081 B(  3-P ,  9-C ) :  -0.0758 
B(  4-S ,  5-O ) :  -0.0681 B(  4-S ,  8-S ) :  -0.0898 B(  4-S , 22-H ) :   0.0606 
B(  4-S , 24-H ) :   0.0506 B(  4-S , 30-H ) :   0.0813 B(  5-O ,  6-C ) :   0.5665 
B(  5-O ,  7-C ) :  -0.0925 B(  5-O ,  8-S ) :  -0.0738 B(  5-O , 24-H ) :  -0.0656 
B(  5-O , 25-H ) :  -0.0644 B(  6-C ,  7-C ) :   0.8967 B(  6-C , 24-H ) :   0.7281 
B(  6-C , 25-H ) :   0.7200 B(  7-C , 24-H ) :  -0.0740 B(  7-C , 25-H ) :  -0.0539 
B(  7-C , 26-H ) :   0.6994 B(  7-C , 27-H ) :   0.7266 B(  7-C , 28-H ) :   0.7224 
B(  8-S ,  9-C ) :   0.4910 B(  8-S , 10-S ) :  -0.1644 B(  8-S , 29-H ) :  -0.0627 
B(  8-S , 30-H ) :  -0.0566 B(  9-C , 10-S ) :   0.4761 B(  9-C , 11-P ) :  -0.0714 
B(  9-C , 29-H ) :   0.7100 B(  9-C , 30-H ) :   0.6687 B( 10-S , 11-P ) :   0.5213 
B( 10-S , 12-S ) :  -0.0675 B( 10-S , 13-O ) :  -0.0892 B( 10-S , 16-O ) :  -0.0702 
B( 10-S , 29-H ) :  -0.0582 B( 10-S , 30-H ) :  -0.0666 B( 11-P , 12-S ) :   0.9424 
B( 11-P , 13-O ) :   0.6203 B( 11-P , 14-C ) :  -0.0875 B( 11-P , 16-O ) :   0.6150 
B( 11-P , 17-C ) :  -0.0734 B( 12-S , 13-O ) :  -0.0684 B( 12-S , 16-O ) :  -0.0833 
B( 12-S , 32-H ) :   0.0590 B( 12-S , 37-H ) :   0.0750 B( 13-O , 14-C ) :   0.5487 
B( 13-O , 15-C ) :  -0.0928 B( 13-O , 31-H ) :  -0.0598 B( 13-O , 32-H ) :  -0.0654 
B( 14-C , 15-C ) :   0.8986 B( 14-C , 31-H ) :   0.7278 B( 14-C , 32-H ) :   0.7212 
B( 15-C , 31-H ) :  -0.0532 B( 15-C , 32-H ) :  -0.0674 B( 15-C , 33-H ) :   0.6997 
B( 15-C , 34-H ) :   0.7187 B( 15-C , 35-H ) :   0.7288 B( 16-O , 17-C ) :   0.5673 
B( 16-O , 18-C ) :  -0.0963 B( 16-O , 36-H ) :  -0.0569 B( 16-O , 37-H ) :  -0.0704 
B( 17-C , 18-C ) :   0.9270 B( 17-C , 36-H ) :   0.7216 B( 17-C , 37-H ) :   0.7088 
B( 17-C , 40-H ) :  -0.0504 B( 18-C , 37-H ) :  -0.0708 B( 18-C , 38-H ) :   0.7279 
B( 18-C , 39-H ) :   0.6903 B( 18-C , 40-H ) :   0.7344 B( 19-H , 20-H ) :  -0.0539 
B( 22-H , 23-H ) :  -0.0645 B( 24-H , 25-H ) :  -0.0724 B( 27-H , 28-H ) :  -0.0533 
B( 31-H , 32-H ) :  -0.0649 B( 34-H , 35-H ) :  -0.0509 B( 36-H , 37-H ) :  -0.0634 
B( 38-H , 40-H ) :  -0.0565 


                     *******************************
                     * LOEWDIN POPULATION ANALYSIS *
                     *******************************

----------------------
LOEWDIN ATOMIC CHARGES
----------------------
   0 C :   -0.369546
   1 C :   -0.118647
   2 O :   -0.240734
   3 P :    0.576545
   4 S :   -0.328870
   5 O :   -0.227107
   6 C :   -0.117577
   7 C :   -0.365565
   8 S :    0.094785
   9 C :   -0.477234
  10 S :    0.082992
  11 P :    0.571195
  12 S :   -0.308301
  13 O :   -0.241311
  14 C :   -0.117811
  15 C :   -0.364332
  16 O :   -0.245039
  17 C :   -0.122589
  18 C :   -0.370698
  19 H :    0.125029
  20 H :    0.120602
  21 H :    0.131118
  22 H :    0.110450
  23 H :    0.119406
  24 H :    0.109549
  25 H :    0.117182
  26 H :    0.129195
  27 H :    0.127403
  28 H :    0.120329
  29 H :    0.133901
  30 H :    0.129663
  31 H :    0.117018
  32 H :    0.112490
  33 H :    0.130489
  34 H :    0.123167
  35 H :    0.126738
  36 H :    0.118895
  37 H :    0.107449
  38 H :    0.127277
  39 H :    0.132219
  40 H :    0.120271

-------------------------------
LOEWDIN REDUCED ORBITAL CHARGES
-------------------------------
  0 C s       :     2.954164  s :     2.954164
      pz      :     1.139167  p :     3.346184
      px      :     1.133244
      py      :     1.073773
      dz2     :     0.014565  d :     0.069199
      dxz     :     0.012701
      dyz     :     0.013227
      dx2y2   :     0.017678
      dxy     :     0.011027

  1 C s       :     2.927149  s :     2.927149
      pz      :     1.137936  p :     3.056522
      px      :     0.853070
      py      :     1.065516
      dz2     :     0.020518  d :     0.134976
      dxz     :     0.029635
      dyz     :     0.017073
      dx2y2   :     0.035422
      dxy     :     0.032328

  2 O s       :     3.500137  s :     3.500137
      pz      :     1.640172  p :     4.716623
      px      :     1.365700
      py      :     1.710751
      dz2     :     0.004530  d :     0.023973
      dxz     :     0.008909
      dyz     :     0.002203
      dx2y2   :     0.003866
      dxy     :     0.004465

  3 P s       :     5.053296  s :     5.053296
      pz      :     2.871572  p :     8.550823
      px      :     2.808490
      py      :     2.870761
      dz2     :     0.169223  d :     0.819336
      dxz     :     0.211738
      dyz     :     0.134882
      dx2y2   :     0.118684
      dxy     :     0.184809

  4 S s       :     5.766922  s :     5.766922
      pz      :     3.253324  p :    10.504417
      px      :     3.606118
      py      :     3.644975
      dz2     :     0.023842  d :     0.057531
      dxz     :     0.017269
      dyz     :     0.011684
      dx2y2   :     0.002282
      dxy     :     0.002454

  5 O s       :     3.499600  s :     3.499600
      pz      :     1.722078  p :     4.702914
      px      :     1.646709
      py      :     1.334127
      dz2     :     0.002785  d :     0.024592
      dxz     :     0.003382
      dyz     :     0.005457
      dx2y2   :     0.006004
      dxy     :     0.006964

  6 C s       :     2.927707  s :     2.927707
      pz      :     1.125048  p :     3.055676
      px      :     1.119718
      py      :     0.810910
      dz2     :     0.031684  d :     0.134194
      dxz     :     0.012721
      dyz     :     0.022067
      dx2y2   :     0.038670
      dxy     :     0.029052

  7 C s       :     2.952766  s :     2.952766
      pz      :     1.127913  p :     3.343383
      px      :     1.101711
      py      :     1.113759
      dz2     :     0.020786  d :     0.069416
      dxz     :     0.013320
      dyz     :     0.005204
      dx2y2   :     0.019728
      dxy     :     0.010378

  8 S s       :     5.644218  s :     5.644218
      pz      :     3.296216  p :    10.165011
      px      :     3.467348
      py      :     3.401446
      dz2     :     0.029728  d :     0.095986
      dxz     :     0.022492
      dyz     :     0.012006
      dx2y2   :     0.010447
      dxy     :     0.021313

  9 C s       :     3.059534  s :     3.059534
      pz      :     1.092521  p :     3.328945
      px      :     1.116505
      py      :     1.119919
      dz2     :     0.021313  d :     0.088755
      dxz     :     0.023611
      dyz     :     0.007763
      dx2y2   :     0.014246
      dxy     :     0.021821

 10 S s       :     5.641378  s :     5.641378
      pz      :     3.427408  p :    10.182457
      px      :     3.318210
      py      :     3.436839
      dz2     :     0.019535  d :     0.093174
      dxz     :     0.023795
      dyz     :     0.010090
      dx2y2   :     0.013514
      dxy     :     0.026240

 11 P s       :     5.063019  s :     5.063019
      pz      :     2.931703  p :     8.557315
      px      :     2.836751
      py      :     2.788861
      dz2     :     0.172103  d :     0.808471
      dxz     :     0.180186
      dyz     :     0.118701
      dx2y2   :     0.199179
      dxy     :     0.138302

 12 S s       :     5.770266  s :     5.770266
      pz      :     3.224476  p :    10.480146
      px      :     3.665210
      py      :     3.590461
      dz2     :     0.022754  d :     0.057889
      dxz     :     0.011283
      dyz     :     0.017736
      dx2y2   :     0.002663
      dxy     :     0.003452

 13 O s       :     3.498106  s :     3.498106
      pz      :     1.575445  p :     4.719125
      px      :     1.738202
      py      :     1.405478
      dz2     :     0.006265  d :     0.024080
      dxz     :     0.002615
      dyz     :     0.005656
      dx2y2   :     0.006379
      dxy     :     0.003165

 14 C s       :     2.929235  s :     2.929235
      pz      :     0.938247  p :     3.054811
      px      :     1.095770
      py      :     1.020794
      dz2     :     0.026883  d :     0.133765
      dxz     :     0.034108
      dyz     :     0.028612
      dx2y2   :     0.029377
      dxy     :     0.014785

 15 C s       :     2.952783  s :     2.952783
      pz      :     1.125075  p :     3.342346
      px      :     1.077878
      py      :     1.139393
      dz2     :     0.008959  d :     0.069203
      dxz     :     0.017368
      dyz     :     0.014416
      dx2y2   :     0.021022
      dxy     :     0.007438

 16 O s       :     3.502166  s :     3.502166
      pz      :     1.758565  p :     4.718853
      px      :     1.508805
      py      :     1.451483
      dz2     :     0.002936  d :     0.024019
      dxz     :     0.004119
      dyz     :     0.003316
      dx2y2   :     0.009509
      dxy     :     0.004140

 17 C s       :     2.926884  s :     2.926884
      pz      :     1.130898  p :     3.059532
      px      :     1.086925
      py      :     0.841709
      dz2     :     0.031178  d :     0.136173
      dxz     :     0.008510
      dyz     :     0.029029
      dx2y2   :     0.042300
      dxy     :     0.025157

 18 C s       :     2.954772  s :     2.954772
      pz      :     1.116573  p :     3.346769
      px      :     1.124122
      py      :     1.106074
      dz2     :     0.022091  d :     0.069157
      dxz     :     0.007814
      dyz     :     0.010535
      dx2y2   :     0.017970
      dxy     :     0.010747

 19 H s       :     0.874971  s :     0.874971

 20 H s       :     0.879398  s :     0.879398

 21 H s       :     0.868882  s :     0.868882

 22 H s       :     0.889550  s :     0.889550

 23 H s       :     0.880594  s :     0.880594

 24 H s       :     0.890451  s :     0.890451

 25 H s       :     0.882818  s :     0.882818

 26 H s       :     0.870805  s :     0.870805

 27 H s       :     0.872597  s :     0.872597

 28 H s       :     0.879671  s :     0.879671

 29 H s       :     0.866099  s :     0.866099

 30 H s       :     0.870337  s :     0.870337

 31 H s       :     0.882982  s :     0.882982

 32 H s       :     0.887510  s :     0.887510

 33 H s       :     0.869511  s :     0.869511

 34 H s       :     0.876833  s :     0.876833

 35 H s       :     0.873262  s :     0.873262

 36 H s       :     0.881105  s :     0.881105

 37 H s       :     0.892551  s :     0.892551

 38 H s       :     0.872723  s :     0.872723

 39 H s       :     0.867781  s :     0.867781

 40 H s       :     0.879729  s :     0.879729


---------------------------------
LOEWDIN BOND ORDERS (THRESH 0.050000)
---------------------------------
B(  0-C ,  1-C ) :   1.1577 B(  0-C ,  2-O ) :   0.0588 B(  0-C , 19-H ) :   0.9355 
B(  0-C , 20-H ) :   0.9281 B(  0-C , 21-H ) :   0.9252 B(  1-C ,  2-O ) :   1.0911 
B(  1-C ,  3-P ) :   0.0644 B(  1-C , 22-H ) :   0.9079 B(  1-C , 23-H ) :   0.9172 
B(  2-O ,  3-P ) :   1.2807 B(  2-O ,  4-S ) :   0.0916 B(  2-O ,  5-O ) :   0.0514 
B(  2-O ,  8-S ) :   0.0578 B(  3-P ,  4-S ) :   1.6974 B(  3-P ,  5-O ) :   1.3059 
B(  3-P ,  6-C ) :   0.0649 B(  3-P ,  8-S ) :   1.0571 B(  4-S ,  5-O ) :   0.0946 
B(  4-S ,  8-S ) :   0.1258 B(  5-O ,  6-C ) :   1.0821 B(  5-O ,  7-C ) :   0.0585 
B(  5-O ,  8-S ) :   0.0504 B(  6-C ,  7-C ) :   1.1576 B(  6-C , 24-H ) :   0.9101 
B(  6-C , 25-H ) :   0.9138 B(  7-C , 26-H ) :   0.9263 B(  7-C , 27-H ) :   0.9357 
B(  7-C , 28-H ) :   0.9290 B(  8-S ,  9-C ) :   1.1680 B(  8-S , 10-S ) :   0.1021 
B(  9-C , 10-S ) :   1.1626 B(  9-C , 29-H ) :   0.9238 B(  9-C , 30-H ) :   0.9092 
B( 10-S , 11-P ) :   1.0483 B( 10-S , 12-S ) :   0.1164 B( 10-S , 13-O ) :   0.0514 
B( 10-S , 16-O ) :   0.0596 B( 11-P , 12-S ) :   1.7333 B( 11-P , 13-O ) :   1.2807 
B( 11-P , 14-C ) :   0.0659 B( 11-P , 16-O ) :   1.2624 B( 11-P , 17-C ) :   0.0661 
B( 12-S , 13-O ) :   0.0936 B( 12-S , 16-O ) :   0.0992 B( 13-O , 14-C ) :   1.0807 
B( 13-O , 15-C ) :   0.0587 B( 14-C , 15-C ) :   1.1580 B( 14-C , 31-H ) :   0.9180 
B( 14-C , 32-H ) :   0.9074 B( 15-C , 33-H ) :   0.9260 B( 15-C , 34-H ) :   0.9280 
B( 15-C , 35-H ) :   0.9362 B( 16-O , 17-C ) :   1.0980 B( 16-O , 18-C ) :   0.0611 
B( 17-C , 18-C ) :   1.1558 B( 17-C , 36-H ) :   0.9166 B( 17-C , 37-H ) :   0.9048 
B( 18-C , 38-H ) :   0.9354 B( 18-C , 39-H ) :   0.9258 B( 18-C , 40-H ) :   0.9252 


------------------------------------------
LOEWDIN REDUCED ORBITAL POPULATIONS PER MO
-------------------------------------------
THRESHOLD FOR PRINTING IS 0.1%%
                      0         1         2         3         4         5   
                 -88.04108 -88.03720 -87.98733 -87.98172 -76.42423 -76.42352
                   2.00000   2.00000   2.00000   2.00000   2.00000   2.00000
                  --------  --------  --------  --------  --------  --------
 3 P  s               0.0       0.0       0.0       0.0     100.0       0.0
 4 S  s               0.0       0.0     100.0       0.0       0.0       0.0
 8 S  s             100.0       0.0       0.0       0.0       0.0       0.0
10 S  s               0.0     100.0       0.0       0.0       0.0       0.0
11 P  s               0.0       0.0       0.0       0.0       0.0     100.0
12 S  s               0.0       0.0       0.0     100.0       0.0       0.0

                      6         7         8         9        10        11   
                 -18.79361 -18.79285 -18.78885 -18.78205  -9.95450  -9.95227
                   2.00000   2.00000   2.00000   2.00000   2.00000   2.00000
                  --------  --------  --------  --------  --------  --------
 2 O  s               0.0      99.9       0.0       0.0       0.0       0.0
 5 O  s               0.0       0.0       0.0      99.9       0.0       0.0
 9 C  s               0.0       0.0       0.0       0.0      99.8       0.0
13 O  s              99.9       0.0       0.0       0.0       0.0       0.0
14 C  s               0.0       0.0       0.0       0.0       0.0      99.6
15 C  px              0.0       0.0       0.0       0.0       0.0       0.1
16 O  s               0.0       0.0      99.9       0.0       0.0       0.0

                     12        13        14        15        16        17   
                  -9.95217  -9.95085  -9.94401  -9.88661  -9.88394  -9.88327
                   2.00000   2.00000   2.00000   2.00000   2.00000   2.00000
                  --------  --------  --------  --------  --------  --------
 0 C  s               0.0       0.0       0.0       0.0      99.7       0.0
 0 C  py              0.1       0.0       0.0       0.0       0.0       0.0
 1 C  s              99.6       0.0       0.0       0.0       0.0       0.0
 1 C  py              0.0       0.0       0.0       0.0       0.1       0.0
 6 C  s               0.0       0.0      99.7       0.0       0.0       0.0
14 C  px              0.0       0.0       0.0       0.0       0.0       0.1
15 C  s               0.0       0.0       0.0       0.0       0.0      99.7
17 C  s               0.0      99.7       0.0       0.0       0.0       0.0
18 C  s               0.0       0.0       0.0      99.7       0.0       0.0

                     18        19        20        21        22        23   
                  -9.87853  -7.68618  -7.68221  -7.63228  -7.62665  -6.42177
                   2.00000   2.00000   2.00000   2.00000   2.00000   2.00000
                  --------  --------  --------  --------  --------  --------
 2 O  pz              0.0       0.0       0.0       0.0       0.0       0.1
 2 O  px              0.0       0.0       0.0       0.0       0.0       0.1
 3 P  s               0.0       0.0       0.0       0.0       0.0      99.3
 4 S  s               0.0       0.0       0.0      99.9       0.0       0.0
 5 O  px              0.0       0.0       0.0       0.0       0.0       0.1
 7 C  s              99.7       0.0       0.0       0.0       0.0       0.0
 8 S  s               0.0      99.7       0.0       0.0       0.0       0.0
 9 C  pz              0.0       0.1       0.0       0.0       0.0       0.0
10 S  s               0.0       0.0      99.7       0.0       0.0       0.0
12 S  s               0.0       0.0       0.0       0.0      99.9       0.0

                     24        25        26        27        28        29   
                  -6.42103  -5.71403  -5.71082  -5.71039  -5.70673  -5.70298
                   2.00000   2.00000   2.00000   2.00000   2.00000   2.00000
                  --------  --------  --------  --------  --------  --------
 8 S  pz              0.0      27.3      55.7       0.0       0.0      17.0
 8 S  px              0.0      44.2       0.3       0.0       0.0      55.5
 8 S  py              0.0      28.5      44.0       0.0       0.0      27.5
10 S  pz              0.0       0.0       0.0      24.3      49.1       0.0
10 S  px              0.0       0.0       0.0      60.8       0.9       0.0
10 S  py              0.0       0.0       0.0      14.9      50.0       0.0
11 P  s              99.3       0.0       0.0       0.0       0.0       0.0
13 O  py              0.2       0.0       0.0       0.0       0.0       0.0
16 O  px              0.2       0.0       0.0       0.0       0.0       0.0

                     30        31        32        33        34        35   
                  -5.69886  -5.66099  -5.65547  -5.65305  -5.65254  -5.64748
                   2.00000   2.00000   2.00000   2.00000   2.00000   2.00000
                  --------  --------  --------  --------  --------  --------
 4 S  pz              0.0      78.5       0.0      17.1       4.4       0.0
 4 S  px              0.0      15.0       0.0      16.9      68.1       0.0
 4 S  py              0.0       6.5       0.0      66.0      27.5       0.0
10 S  pz             26.5       0.0       0.0       0.0       0.0       0.0
10 S  px             38.3       0.0       0.0       0.0       0.0       0.0
10 S  py             35.1       0.0       0.0       0.0       0.0       0.0
12 S  pz              0.0       0.0      83.5       0.0       0.0      14.1
12 S  px              0.0       0.0       3.0       0.0       0.0       0.0
12 S  py              0.0       0.0      13.5       0.0       0.0      85.9

                     36        37        38        39        40        41   
                  -5.64675  -4.64413  -4.64370  -4.64347  -4.64282  -4.64248
                   2.00000   2.00000   2.00000   2.00000   2.00000   2.00000
                  --------  --------  --------  --------  --------  --------
 3 P  pz              0.0      10.6       0.0      56.2       0.0      33.1
 3 P  px              0.0      79.4       0.0       0.2       0.0      20.3
 3 P  py              0.0       9.9       0.0      43.6       0.0      46.5
11 P  pz              0.0       0.0       2.9       0.0       0.3       0.0
11 P  px              0.0       0.0      11.9       0.0      86.8       0.0
11 P  py              0.0       0.0      85.1       0.0      12.9       0.0
12 S  pz              2.4       0.0       0.0       0.0       0.0       0.0
12 S  px             97.0       0.0       0.0       0.0       0.0       0.0
12 S  py              0.6       0.0       0.0       0.0       0.0       0.0

                     42        43        44        45        46        47   
                  -4.64136  -0.98658  -0.98379  -0.94679  -0.94214  -0.76226
                   2.00000   2.00000   2.00000   2.00000   2.00000   2.00000
                  --------  --------  --------  --------  --------  --------
 0 C  s               0.0       0.0       0.3       0.0       0.3       0.1
 0 C  py              0.0       0.0       0.5       0.0       0.4       0.0
 1 C  s               0.0       0.0       4.0       0.0       4.0       0.4
 1 C  px              0.0       0.0       3.9       0.0       2.9       0.0
 1 C  py              0.0       0.0       0.5       0.0       0.4       0.0
 1 C  dx2y2           0.0       0.0       0.1       0.0       0.1       0.0
 1 C  dxy             0.0       0.0       0.1       0.0       0.1       0.0
 2 O  s               0.0       0.1      34.4       0.0      24.5       0.2
 2 O  pz              0.0       0.0       1.6       0.0       0.5       0.1
 2 O  px              0.0       0.0       0.1       0.0       0.4       0.4
 2 O  py              0.0       0.0       0.1       0.0       0.3       0.0
 3 P  s               0.0       0.1      14.1       0.0       0.2       3.1
 3 P  pz              0.0       0.0       3.9       0.0       0.3       0.2
 3 P  px              0.0       0.0       0.1       0.0       8.0       0.7
 3 P  py              0.0       0.0       0.8       0.0       2.6       1.8
 3 P  dz2             0.0       0.0       0.0       0.0       0.4       0.0
 3 P  dxz             0.0       0.0       0.3       0.0       1.8       0.0
 3 P  dyz             0.0       0.0       0.1       0.0       0.3       0.0
 3 P  dx2y2           0.0       0.0       0.2       0.0       0.2       0.0
 3 P  dxy             0.0       0.0       0.5       0.0       0.7       0.2
 4 S  s               0.0       0.0       0.3       0.0       0.0       0.6
 4 S  pz              0.0       0.0       0.3       0.0       0.0       0.2
 5 O  s               0.0       0.1      22.3       0.0      36.0       0.3
 5 O  pz              0.0       0.0       0.3       0.0       0.5       0.0
 5 O  px              0.0       0.0       1.1       0.0       0.5       0.0
 5 O  py              0.0       0.0       0.0       0.0       0.3       0.9
 6 C  s               0.0       0.0       2.6       0.0       5.2       0.7
 6 C  pz              0.0       0.0       0.1       0.0       0.2       0.0
 6 C  py              0.0       0.0       2.8       0.0       4.5       0.1
 6 C  dx2y2           0.0       0.0       0.2       0.0       0.3       0.0
 7 C  s               0.0       0.0       0.2       0.0       0.4       0.2
 7 C  px              0.0       0.0       0.1       0.0       0.3       0.1
 7 C  py              0.0       0.0       0.2       0.0       0.3       0.0
 8 S  s               0.0       0.0       0.3       0.0       0.0      19.9
 8 S  pz              0.0       0.0       0.0       0.0       0.0       2.3
 8 S  px              0.0       0.0       0.1       0.0       0.0       0.2
 8 S  py              0.0       0.0       0.3       0.0       0.0       0.5
 8 S  dxz             0.0       0.0       0.0       0.0       0.0       0.1
 9 C  s               0.0       0.0       0.0       0.0       0.0      25.6
 9 C  pz              0.0       0.0       0.0       0.0       0.0       1.6
 9 C  py              0.0       0.0       0.0       0.0       0.0       1.1
10 S  s               0.0       0.3       0.0       0.0       0.0      16.6
10 S  pz              0.0       0.2       0.0       0.0       0.0       0.5
10 S  px              0.0       0.1       0.0       0.0       0.0       0.6
10 S  py              0.0       0.0       0.0       0.0       0.0       1.7
10 S  dxy             0.0       0.0       0.0       0.0       0.0       0.2
11 P  s               0.0      14.0       0.1       0.0       0.0       2.1
11 P  pz             96.8       0.4       0.0       0.4       0.0       0.7
11 P  px              1.2       2.5       0.0       3.1       0.0       1.3
11 P  py              1.9       1.9       0.0       7.4       0.0       0.1
11 P  dz2             0.0       0.6       0.0       0.0       0.0       0.1
[...]
                  --------  --------  --------  --------
 1 C  s               0.0       0.4       0.4       0.7
 1 C  px              0.0       0.6       0.5       1.0
 1 C  py              0.0       0.1       0.1       0.2
 1 C  dz2             0.0       0.6       0.5       0.9
 1 C  dx2y2           0.0       0.9       0.9       1.6
 1 C  dxy             0.0       0.9       0.6       1.2
 2 O  s               0.0       0.1       0.1       0.1
 2 O  pz              0.0       0.1       0.2       0.3
 2 O  px              0.0       1.2       1.3       2.6
 2 O  py              0.0       0.1       0.1       0.2
 2 O  dz2             0.0       4.5       4.8       8.9
 2 O  dxz             0.0       4.9       5.7      10.6
 2 O  dyz             0.0       0.1       0.1       0.2
 2 O  dx2y2           0.0       2.3       1.0       1.8
 2 O  dxy             0.0       4.5       4.1       7.6
 3 P  s               0.0       0.4       0.0       0.0
 3 P  pz              0.0       0.2       0.0       0.0
 3 P  px              0.0       0.0       0.8       1.4
 3 P  py              0.0       0.1       0.3       0.6
 3 P  dz2             0.0       0.1       0.0       0.0
 3 P  dxz             0.0       0.4       0.3       0.6
 3 P  dyz             0.0       0.0       0.1       0.2
 3 P  dx2y2           0.0       0.0       0.1       0.2
 3 P  dxy             0.0       0.1       0.1       0.2
 5 O  s               0.0       2.6       0.1       0.2
 5 O  px              0.0       0.1       0.3       0.4
 5 O  py              0.0       3.5       0.9       1.8
 5 O  dz2             0.1       9.8       0.0       0.0
 5 O  dxz             0.0       0.1       0.8       1.6
 5 O  dyz             0.0       8.2       2.1       4.1
 5 O  dx2y2           0.3      36.4       2.3       5.5
 5 O  dxy             0.0       0.4       4.4       8.0
 6 C  s               0.0       1.6       0.1       0.3
 6 C  py              0.0       2.8       0.2       0.5
 6 C  dz2             0.0       1.7       0.1       0.2
 6 C  dyz             0.0       1.2       0.0       0.1
 6 C  dx2y2           0.1       7.2       0.5       1.1
 6 C  dxy             0.0       0.0       0.1       0.1
 7 C  dxy             0.0       0.2       0.0       0.0
11 P  s               0.5       0.0       0.0       0.0
11 P  px              0.2       0.0       0.4       0.2
11 P  py              0.2       0.0       1.4       0.8
11 P  dz2             0.2       0.0       0.0       0.0
11 P  dyz             0.4       0.0       0.0       0.0
11 P  dx2y2           0.1       0.0       0.6       0.3
11 P  dxy             0.0       0.0       0.5       0.3
13 O  s               1.7       0.0       0.2       0.1
13 O  pz              1.6       0.0       0.2       0.1
13 O  px              0.3       0.0       0.0       0.0
13 O  py              2.5       0.0       1.4       0.8
13 O  dz2            16.8       0.1       5.9       3.6
13 O  dxz             6.4       0.0       0.5       0.4
13 O  dyz            32.2       0.1       2.2       1.6
13 O  dx2y2           0.0       0.0       5.2       2.8
13 O  dxy             1.8       0.0       0.2       0.1
14 C  s               1.6       0.0       0.2       0.1
14 C  pz              1.8       0.0       0.2       0.1
14 C  px              0.3       0.0       0.0       0.0
14 C  py              0.9       0.0       0.1       0.1
14 C  dz2             1.9       0.0       0.0       0.0
14 C  dxz             1.0       0.0       0.0       0.0
14 C  dyz             5.9       0.0       0.6       0.4
14 C  dx2y2           0.6       0.0       0.1       0.1
14 C  dxy             0.7       0.0       0.1       0.1
15 C  dxz             0.2       0.0       0.0       0.0
16 O  s               0.3       0.0       0.2       0.1
16 O  px              0.3       0.0       1.4       0.7
16 O  py              0.7       0.0       2.0       1.0
16 O  dz2             1.8       0.0       2.0       1.0
16 O  dxz             0.4       0.0       2.6       1.4
16 O  dyz             0.8       0.0       1.2       0.6
16 O  dx2y2           9.3       0.1      27.0      13.2
16 O  dxy             2.0       0.0       1.5       0.7
17 C  s               0.4       0.0       0.9       0.4
17 C  px              0.1       0.0       0.2       0.1
17 C  py              0.6       0.0       1.4       0.7
17 C  dz2             0.5       0.0       0.9       0.5
17 C  dyz             0.0       0.0       0.1       0.0
17 C  dx2y2           1.1       0.0       1.7       0.8
17 C  dxy             0.8       0.0       1.9       0.9


                      *****************************
                      * MAYER POPULATION ANALYSIS *
                      *****************************

  NA   - Mulliken gross atomic population
  ZA   - Total nuclear charge
  QA   - Mulliken gross atomic charge
  VA   - Mayer's total valence
  BVA  - Mayer's bonded valence
  FA   - Mayer's free valence

  ATOM       NA         ZA         QA         VA         BVA        FA
  0 C      6.3157     6.0000    -0.3157     3.9896     3.9896    -0.0000
  1 C      6.0039     6.0000    -0.0039     4.0042     4.0042    -0.0000
  2 O      8.3688     8.0000    -0.3688     2.1878     2.1878    -0.0000
  3 P     14.3793    15.0000     0.6207     4.9554     4.9554    -0.0000
  4 S     16.3429    16.0000    -0.3429     2.0471     2.0471    -0.0000
  5 O      8.3440     8.0000    -0.3440     2.2099     2.2099    -0.0000
  6 C      6.0097     6.0000    -0.0097     4.0023     4.0023    -0.0000
  7 C      6.3040     6.0000    -0.3040     3.9922     3.9922    -0.0000
  8 S     16.0826    16.0000    -0.0826     2.2859     2.2859     0.0000
  9 C      6.3411     6.0000    -0.3411     3.8551     3.8551    -0.0000
 10 S     16.0981    16.0000    -0.0981     2.2543     2.2543    -0.0000
 11 P     14.3842    15.0000     0.6158     4.9451     4.9451     0.0000
 12 S     16.3133    16.0000    -0.3133     2.0781     2.0781     0.0000
 13 O      8.3768     8.0000    -0.3768     2.1749     2.1749    -0.0000
 14 C      6.0061     6.0000    -0.0061     3.9980     3.9980     0.0000
 15 C      6.3035     6.0000    -0.3035     3.9919     3.9919     0.0000
 16 O      8.3687     8.0000    -0.3687     2.1751     2.1751    -0.0000
 17 C      6.0018     6.0000    -0.0018     3.9992     3.9992    -0.0000
 18 C      6.3365     6.0000    -0.3365     3.9879     3.9879    -0.0000
 19 H      0.8807     1.0000     0.1193     0.9608     0.9608     0.0000
 20 H      0.8747     1.0000     0.1253     0.9830     0.9830    -0.0000
 21 H      0.8868     1.0000     0.1132     0.9549     0.9549    -0.0000
 22 H      0.8890     1.0000     0.1110     0.9808     0.9808     0.0000
 23 H      0.8935     1.0000     0.1065     0.9490     0.9490     0.0000
 24 H      0.8899     1.0000     0.1101     0.9761     0.9761    -0.0000
 25 H      0.8893     1.0000     0.1107     0.9580     0.9580    -0.0000
 26 H      0.8907     1.0000     0.1093     0.9545     0.9545     0.0000
 27 H      0.8813     1.0000     0.1187     0.9601     0.9601    -0.0000
 28 H      0.8807     1.0000     0.1193     0.9806     0.9806     0.0000
 29 H      0.8133     1.0000     0.1867     0.9418     0.9418    -0.0000
 30 H      0.8097     1.0000     0.1903     0.9709     0.9709     0.0000
 31 H      0.8978     1.0000     0.1022     0.9490     0.9490     0.0000
 32 H      0.8837     1.0000     0.1163     0.9830     0.9830     0.0000
 33 H      0.8881     1.0000     0.1119     0.9538     0.9538     0.0000
 34 H      0.8772     1.0000     0.1228     0.9861     0.9861    -0.0000
 35 H      0.8831     1.0000     0.1169     0.9599     0.9599     0.0000
 36 H      0.8946     1.0000     0.1054     0.9493     0.9493     0.0000
 37 H      0.8925     1.0000     0.1075     0.9905     0.9905    -0.0000
 38 H      0.8757     1.0000     0.1243     0.9581     0.9581    -0.0000
 39 H      0.8846     1.0000     0.1154     0.9555     0.9555    -0.0000
 40 H      0.8620     1.0000     0.1380     0.9734     0.9734    -0.0000

  Mayer bond orders larger than 0.100000
B(  0-C ,  1-C ) :   1.1665 B(  0-C , 19-H ) :   0.9447 B(  0-C , 20-H ) :   0.9353 
B(  0-C , 21-H ) :   0.9378 B(  1-C ,  2-O ) :   0.9078 B(  1-C , 22-H ) :   0.9158 
B(  1-C , 23-H ) :   0.9337 B(  2-O ,  3-P ) :   1.1130 B(  3-P ,  4-S ) :   1.5815 
B(  3-P ,  5-O ) :   1.1484 B(  3-P ,  8-S ) :   0.9509 B(  4-S ,  8-S ) :   0.1092 
B(  5-O ,  6-C ) :   0.9073 B(  6-C ,  7-C ) :   1.1627 B(  6-C , 24-H ) :   0.9198 
B(  6-C , 25-H ) :   0.9256 B(  7-C , 26-H ) :   0.9394 B(  7-C , 27-H ) :   0.9449 
B(  7-C , 28-H ) :   0.9356 B(  8-S ,  9-C ) :   1.0101 B(  9-C , 10-S ) :   1.0019 
B(  9-C , 29-H ) :   0.9023 B(  9-C , 30-H ) :   0.8803 B( 10-S , 11-P ) :   0.9488 
B( 10-S , 12-S ) :   0.1072 B( 11-P , 12-S ) :   1.6241 B( 11-P , 13-O ) :   1.1115 
B( 11-P , 16-O ) :   1.0953 B( 13-O , 14-C ) :   0.9001 B( 14-C , 15-C ) :   1.1657 
B( 14-C , 31-H ) :   0.9343 B( 14-C , 32-H ) :   0.9150 B( 15-C , 33-H ) :   0.9390 
B( 15-C , 34-H ) :   0.9352 B( 15-C , 35-H ) :   0.9459 B( 16-O , 17-C ) :   0.9154 
B( 17-C , 18-C ) :   1.1624 B( 17-C , 36-H ) :   0.9323 B( 17-C , 37-H ) :   0.9108 
B( 18-C , 38-H ) :   0.9433 B( 18-C , 39-H ) :   0.9387 B( 18-C , 40-H ) :   0.9297 


-------
TIMINGS
-------

Total SCF time: 0 days 0 hours 0 min 16 sec 

Total time                  ....      16.467 sec
Sum of individual times     ....      15.949 sec  ( 96.9%)

SCF preparation             ....       0.225 sec  (  1.4%)
Fock matrix formation       ....      14.511 sec  ( 88.1%)
  Startup                   ....       0.057 sec  (  0.4% of F)
  Split-RI-J                ....       8.644 sec  ( 59.6% of F)
  XC integration            ....       5.302 sec  ( 36.5% of F)
    Basis function eval.    ....       2.033 sec  ( 38.3% of XC)
    Density eval.           ....       1.031 sec  ( 19.4% of XC)
    XC-Functional eval.     ....       0.393 sec  (  7.4% of XC)
    XC-Potential eval.      ....       1.174 sec  ( 22.1% of XC)
Diagonalization             ....       0.000 sec  (  0.0%)
Density matrix formation    ....       0.229 sec  (  1.4%)
Total Energy calculation    ....       0.030 sec  (  0.2%)
Population analysis         ....       0.222 sec  (  1.4%)
Orbital Transformation      ....       0.107 sec  (  0.7%)
Orbital Orthonormalization  ....       0.000 sec  (  0.0%)
DIIS solution               ....       0.448 sec  (  2.7%)
  MO trafo                  ....       0.000 sec  (  0.0 % of DIIS)
  Orb grad                  ....       0.000 sec  (  0.0 % of DIIS)
  Energy W gradient         ....       0.000 sec  (  0.0 % of DIIS)
  DIIS error                ....       0.021 sec  (  4.6 % of DIIS)
  DIIS work                 ....       0.372 sec  ( 83.0 % of DIIS)
  Form Q                    ....       0.000 sec  (  0.0 % of DIIS)
  Form QpQm                 ....       0.000 sec  (  0.0 % of DIIS)
  Exp/Cayley                ....       0.000 sec  (  0.0 % of DIIS)
  Orb update                ....       0.000 sec  (  0.0 % of DIIS)
  Wake-sleep                ....       0.015 sec  (  3.4 % of DIIS)
SOSCF solution              ....       0.176 sec  (  1.1%)
  MO trafo                  ....       0.073 sec  ( 41.3 % of SOSCF)
  Orb grad                  ....       0.017 sec  (  9.7 % of SOSCF)
  Rot update                ....       0.033 sec  ( 18.8 % of SOSCF)
  Step                      ....       0.053 sec  ( 30.0 % of SOSCF)
Finished LeanSCF after  16.6 sec

Maximum memory used throughout the entire LEANSCF-calculation: 34.7 MB


-------------------------------------------------------------------------------
                          DFT DISPERSION CORRECTION                            
                                                                               
                                DFTD4 V3.4.0                                   
-------------------------------------------------------------------------------
The PBE functional is recognized
Active option DFTDOPT                   ...         5   

-------------------------   ----------------
Dispersion correction           -0.067605887
-------------------------   ----------------

------------------   -----------------
gCP correction             0.184746714
------------------   -----------------

-------------------------   --------------------
FINAL SINGLE POINT ENERGY     -2929.521405644981
-------------------------   --------------------


------------------------------------------------------------------------------
                              ORCA PROPERTY CALCULATIONS
------------------------------------------------------------------------------

GBWName                                 ... sp.gbw
Number of atoms                         ...     41
Number of basis functions               ...    334
Max core memory                         ...   1024 MB

Electric properties:
Dipole moment                           ... YES
Quadrupole moment                       ...  NO
Static polarizability (Dipole/Dipole)   ...  NO
Static polarizability (Dipole/Quad.)    ...  NO
Static polarizability (Quad./Quad.)     ...  NO
Static polarizability (Velocity)        ...  NO

Atomic electric properties:
Dipole moment                           ...  NO
Quadrupole moment                       ...  NO
Static polarizability                   ...  NO

Choice of electric origin               ... Center of mass
Position of electric origin             ...     0.000002    -0.000002    -0.000001

General magnetic properties:
Magnetizability                         ...  NO

EPR properties:
g-Tensor (aka g-matrix)                 ...  NO
Zero-Field splitting spin-orbit         ...  NO
Zero-field splitting spin-spin          ...  NO
Hyperfine couplings                     ...  NO (   0 nuclei)
Quadrupole couplings                    ...  NO (   0 nuclei)
Contact density                         ...  NO (   0 nuclei)

NMR properties:
Chemical shifts                         ...  NO (   0 nuclei)
Spin-rotation constants                 ...  NO (   0 nuclei)
Spin-spin couplings                     ...  NO (   0 nuclei,    0 pairs)

Choice of magnetic origin               ... GIAO
Position of magnetic origin             ...     0.000000     0.000000     0.000000

Properties with geometric perturbations:
SCF Hessian                             ...  NO
IR spectrum                             ...  NO
VCD spectrum                            ...  NO
X-ray spectroscopy properties:
SCF XES/XAS/RIXS spectra                ...  NO


-------------
DIPOLE MOMENT
-------------

Method             : SCF
Type of density    : Electron Density
Multiplicity       :   1
Irrep              :   0
Energy             : -2929.6385464722170582 Eh
Relativity type    : 
Basis              : AO
                                X                 Y                 Z
Electronic contribution:      2.127122646       4.176531218       5.429706214
Nuclear contribution   :     -2.446003178      -3.907854592      -5.711552118
                        -----------------------------------------
Total Dipole Moment    :     -0.318880532       0.268676626      -0.281845904
                        -----------------------------------------
Magnitude (a.u.)       :      0.503298159
Magnitude (Debye)      :      1.279282254



--------------------
Rotational spectrum 
--------------------
 
Rotational constants in cm-1:             0.012516             0.005419             0.004755 
Rotational constants in MHz :           375.218635           162.443827           142.562506 

Dipole components along the rotational axes: 
x,y,z [a.u.] :    -0.356372     0.286910    -0.209741 
x,y,z [Debye]:    -0.905824     0.729266    -0.533119 

 

Dipole moment calculation done in   0.0 sec 

Maximum memory used throughout the entire PROP-calculation: 24.0 MB

--------------------------------
SUGGESTED CITATIONS FOR THIS RUN
--------------------------------

Below you find a list of papers that are relevant to this ORCA run
We neither can nor want to force you to cite these papers, but we appreciate if you do
You receive ORCA, which is the product of decades of hard work by many enthusiastic individuals, for free
The only thing we kindly ask in return is that you cite our papers,
We deeply appreciate it, if you show your appreciation for ORCA by not just citing the generic ORCA reference.

Please note that relegating all ORCA citations to the supporting information does *not* help us.
SI sections are not indexed - citations you put there will not count into any citation statistics
But we need these citations in order to attract the funding resources that allow us to do what we are doing

Therefore, if you are a happy ORCA user, please consider citing a few of the papers listed below in the main body of your paper

In addition to the list printed below, the program has created the file sp.bibtex that contains the list in bibtex format
You can import this file easily into all common literature databanks and citation aid programs


List of essential papers. We consider these as the minimum necessary citations

  1. Neese,F.
     Software update: the ORCA program system, version 5.0
     WIRES Comput. Molec. Sci., 2022 12(1)e1606
     doi.org/10.1002/wcms.1606

List of papers to cite with high priority. The work reported in these papers was absolutely
necessary for this run to complete.
Our perspective: the developers of density functionals and basis sets usually get cited in chemistry papers
Good! But without the algorithms to do something with them, the functionals or basis sets would not do anything.
Hence, in our opinion, the algorithm design and method developments papers are equally worthy of getting cited

  1. Neese,F.
     An improvement of the resolution of the identity approximation for the formation of the Coulomb matrix
     J. Comp. Chem., 2003 24(14)1740-1747
     doi.org/10.1002/jcc.10318
  2. Neese,F.
     The SHARK Integral Generation and Digestion System
     J. Comp. Chem., 2022  1-16
     doi.org/10.1002/jcc.26942
  3. Caldeweyher,E.; Bannwarth,C.; Grimme,S.
     Extension of the D3 dispersion coefficient model
     J. Chem. Phys., 2017 147 034112-XXXX
     doi.org/10.1063/1.4993215
  4. Caldeweyher,E.; Ehlert,S.; Hansen,A.; Neugebauer,H.; Spicher,S.; Bannwarth,C.; Grimme,S.
     A generally applicable atomic-charge dependent London dispersion correction
     J. Chem. Phys., 2019 150 154122-XXXX
     doi.org/10.1063/1.5090222
  5. Caldeweyher,E.; Mewes,J.; Ehlert,S.; Grimme,S.
     Extension and evaluation of the D4 London-dispersion model for periodic systems
     Phys. Chem. Chem. Phys., 2020 22(16)8499-8512
     doi.org/10.1039/D0CP00502A

List of suggested additional citations. These are papers that are important in the 'surrounding' of 
of this run, or papers that preceded the highly important papers. If you like your results we are grateful for a citation.

  1. Neese,F.
     The ORCA program system
     WIRES Comput. Molec. Sci., 2012 2(1)73-78
     doi.org/10.1002/wcms.81
  2. Neese,F.
     Software update: the ORCA program system, version 4.0
     WIRES Comput. Molec. Sci., 2018 8(1)1-6
     doi.org/10.1002/wcms.1327
  3. Neese,F.; Wennmohs,F.; Becker,U.; Riplinger,C.
     The ORCA quantum chemistry program package
     J. Chem. Phys., 2020 152 Art. No. L224108
     doi.org/10.1063/5.0004608

List of optional additional citations

  1. Neese,F.
     Approximate second-order SCF convergence for spin unrestricted wavefunctions
     Chem. Phys. Lett., 2000 325(1-3)93-98
     doi.org/10.1016/s0009-2614(00)00662-x

Timings for individual modules:

Sum of individual times          ...       20.249 sec (=   0.337 min)
Startup calculation              ...        1.643 sec (=   0.027 min)   8.1 %
SCF iterations                   ...       18.487 sec (=   0.308 min)  91.3 %
Property calculations            ...        0.119 sec (=   0.002 min)   0.6 %
                             ****ORCA TERMINATED NORMALLY****
TOTAL RUN TIME: 0 days 0 hours 0 minutes 21 seconds 114 msec
