      -----------------------------------------------------------      
     |                   =====================                   |     
     |                           x T B                           |     
     |                   =====================                   |     
     |                         S. Grimme                         |     
     |          Mulliken Center for Theoretical Chemistry        |     
     |                    University of Bonn                     |     
      -----------------------------------------------------------      

   * xtb version 6.7.1 (edcfbbe) compiled by 'albert@albert-system' on 2024-07-22

   xtb is free software: you can redistribute it and/or modify it under
   the terms of the GNU Lesser General Public License as published by
   the Free Software Foundation, either version 3 of the License, or
   (at your option) any later version.
   
   xtb is distributed in the hope that it will be useful,
   but WITHOUT ANY WARRANTY; without even the implied warranty of
   MERCHANTABILITY or FITNESS FOR A PARTICULAR PURPOSE.  See the
   GNU Lesser General Public License for more details.
   
   Cite this work as:
   * C. Bannwarth, E. Caldeweyher, S. Ehlert, A. Hansen, P. Pracht,
     J. Seibert, S. Spicher, S. Grimme, WIREs Comput. Mol. Sci., 2020, 11,
     e01493. DOI: 10.1002/wcms.1493
   
   for GFN2-xTB:
   * C. Bannwarth, S. Ehlert and S. Grimme., J. Chem. Theory Comput., 2019,
     15, 1652-1671. DOI: 10.1021/acs.jctc.8b01176
   for GFN1-xTB:
   * S. Grimme, C. Bannwarth, P. Shushkov, J. Chem. Theory Comput., 2017,
     13, 1989-2009. DOI: 10.1021/acs.jctc.7b00118
   for GFN0-xTB:
   * P. Pracht, E. Caldeweyher, S. Ehlert, S. Grimme, ChemRxiv, 2019, preprint.
     DOI: 10.26434/chemrxiv.8326202.v1
   for GFN-FF:
   * S. Spicher and S. Grimme, Angew. Chem. Int. Ed., 2020, 59, 15665-15673.
     DOI: 10.1002/anie.202004239
   
   for ALPB and GBSA implicit solvation:
   * S. Ehlert, M. Stahn, S. Spicher, S. Grimme, J. Chem. Theory Comput.,
     2021, 17, 4250-4261. DOI: 10.1021/acs.jctc.1c00471
   
   for ddCOSMO and CPCM-X implicit solvation:
   * M. Stahn, S. Ehlert, S. Grimme, J. Phys. Chem. A,
     2023, XX, XXXX-XXXX. DOI: 10.1021/acs.jpca.3c04382
   
   for DFT-D4:
   * E. Caldeweyher, C. Bannwarth and S. Grimme, J. Chem. Phys., 2017,
     147, 034112. DOI: 10.1063/1.4993215
   * E. Caldeweyher, S. Ehlert, A. Hansen, H. Neugebauer, S. Spicher,
     C. Bannwarth and S. Grimme, J. Chem. Phys., 2019, 150, 154122.
     DOI: 10.1063/1.5090222
   * E. Caldeweyher, J.-M. Mewes, S. Ehlert and S. Grimme, Phys. Chem. Chem. Phys.
     2020, 22, 8499-8512. DOI: 10.1039/D0CP00502A
   
   for sTDA-xTB:
   * S. Grimme and C. Bannwarth, J. Chem. Phys., 2016, 145, 054103.
     DOI: 10.1063/1.4959605
   
   in the mass-spec context:
   * V. Asgeirsson, C. Bauer and S. Grimme, Chem. Sci., 2017, 8, 4879.
     DOI: 10.1039/c7sc00601b
   * J. Koopman and S. Grimme, ACS Omega 2019, 4, 12, 15120-15133.
     DOI: 10.1021/acsomega.9b02011
   
   for metadynamics refer to:
   * S. Grimme, J. Chem. Theory Comput., 2019, 155, 2847-2862
     DOI: 10.1021/acs.jctc.9b00143
   
   for SPH calculations refer to:
   * S. Spicher and S. Grimme, J. Chem. Theory Comput., 2021, 17, 1701-1714
     DOI: 10.1021/acs.jctc.0c01306
   
   for ONIOM refer to:
   * C. Plett, A. Katbashev, S. Ehlert, S. Grimme, M. Bursch,
     Phys. Chem. Chem. Phys., 2023, 25, 17860-17868. DOI: 10.1039/D3CP02178E
   
   for DIPRO refer to:
   * J. Kohn, N. Gildemeister, S. Grimme, D. Fazzi, A. Hansen,
     J. Chem. Phys., 2023, just accepted.
   
   for PTB refer to:
   * S. Grimme, M. Mueller, A. Hansen, J. Chem. Phys., 2023, 158, 124111.
     DOI: 10.1063/5.0137838
   
   with help from (in alphabetical order)
   P. Atkinson, C. Bannwarth, F. Bohle, G. Brandenburg, E. Caldeweyher
   M. Checinski, S. Dohm, S. Ehlert, S. Ehrlich, I. Gerasimov, C. Hölzer
   A. Katbashev, J. Kohn, J. Koopman, C. Lavigne, S. Lehtola, F. März, M. Müller,
   F. Musil, H. Neugebauer, J. Pisarek, C. Plett, P. Pracht, F. Pultar,
   J. Seibert, P. Shushkov, S. Spicher, M. Stahn, M. Steiner, T. Strunk,
   J. Stückrath, T. Rose, and J. Unsleber
   
 * started run on 2025/04/09 at 14:03:08.944     
   ID    Z sym.   atoms
    1    6 C      1, 2, 7, 8, 10, 15, 16, 18, 19
    2    8 O      3, 6, 14, 17
    3   15 P      4, 12
    4   16 S      5, 9, 11, 13
    5    1 H      20-41

           -------------------------------------------------
          |                Calculation Setup                |
           -------------------------------------------------

          program call               : /srv/scratch/z5358697/.xtb/bin/xtb xtb_rrho.coord --gfn2 --bhess vtight --chrg 0 --enso --norestart -I rrho-xcontrol-inp --parallel 1 --alpb water
          hostname                   : k163
          coordinate file            : xtb_rrho.coord
          omp threads                :                     1


           -------------------------------------------------
          |                 G F N 2 - x T B                 |
           -------------------------------------------------

        Reference                      10.1021/acs.jctc.8b01176
      * Hamiltonian:
        H0-scaling (s, p, d)           1.850000    2.230000    2.230000
        zeta-weighting                 0.500000
      * Dispersion:
        s8                             2.700000
        a1                             0.520000
        a2                             5.000000
        s9                             5.000000
      * Repulsion:
        kExp                           1.500000    1.000000
        rExp                           1.000000
      * Coulomb:
        alpha                          2.000000
        third order                    shell-resolved
        anisotropic                    true
        a3                             3.000000
        a5                             4.000000
        cn-shift                       1.200000
        cn-exp                         4.000000
        max-rad                        5.000000

      * Solvation model:               ALPB
        Solvent                        water
        Parameter file                 internal GFN2-xTB/ALPB
        Dielectric constant                8.0200E+01
        Reference state                gsolv [1 M gas/solution]
        Free energy shift                  1.0808E-03 Eh       6.7819E-01 kcal/mol
        Temperature                        2.9815E+02 K
        Density                            1.0000E+00 kg/L
        Solvent mass                       1.8000E+01 g/mol
        Interaction kernel             P16
        Born radius scaling (c1)           1.4744E+00
        Born radii integrator          GBOBC
        Born offset                        0.0000E+00 a0       0.0000E+00 AA
        H-bond correction              true
        Ion screening                  false
        Surface tension                    1.0000E-05 Eh       1.5569E+01 dyn/cm
        Grid points                               974 per atom

          ...................................................
          :                      SETUP                      :
          :.................................................:
          :  # basis functions                 134          :
          :  # atomic orbitals                 128          :
          :  # shells                           66          :
          :  # electrons                       116          :
          :  max. iterations                   250          :
          :  Hamiltonian                  GFN2-xTB          :
          :  restarted?                      false          :
          :  GBSA solvation                   true          :
          :  PC potential                    false          :
          :  electronic temp.          300.0000000     K    :
          :  accuracy                    1.0000000          :
          :  -> integral cutoff          0.2500000E+02      :
          :  -> integral neglect         0.1000000E-07      :
          :  -> SCF convergence          0.1000000E-05 Eh   :
          :  -> wf. convergence          0.1000000E-03 e    :
          :  Broyden damping             0.4000000          :
          :  net charge                          0          :
          :  unpaired electrons                  0          :
          ...................................................

 iter      E             dE          RMSdq      gap      omega  full diag
   1    -65.4136707 -0.654137E+02  0.644E+00    4.19       0.0  T
   2    -65.5357655 -0.122095E+00  0.365E+00    3.53       1.0  T
   3    -65.5542596 -0.184942E-01  0.106E+00    3.11       1.0  T
   4    -65.5574679 -0.320828E-02  0.468E-01    3.07       1.0  T
   5    -65.5581875 -0.719609E-03  0.252E-01    3.12       1.0  T
   6    -65.5583737 -0.186145E-03  0.111E-01    3.11       1.0  T
   7    -65.5584150 -0.413684E-04  0.407E-02    3.13       1.0  T
   8    -65.5584187 -0.366616E-05  0.162E-02    3.13       1.0  T
   9    -65.5584194 -0.665453E-06  0.496E-03    3.13       3.2  T
  10    -65.5584194  0.144050E-07  0.260E-03    3.13       6.0  T
  11    -65.5584194 -0.511145E-07  0.634E-04    3.13      24.6  T
  12    -65.5584194 -0.113953E-08  0.292E-04    3.13      53.5  T

   *** convergence criteria satisfied after 12 iterations ***

         #    Occupation            Energy/Eh            Energy/eV
      -------------------------------------------------------------
         1        2.0000           -0.7612488             -20.7146
       ...           ...                  ...                  ...
        52        2.0000           -0.4503942             -12.2558
        53        2.0000           -0.4179451             -11.3729
        54        2.0000           -0.4109472             -11.1824
        55        2.0000           -0.3968134             -10.7978
        56        2.0000           -0.3942872             -10.7291
        57        2.0000           -0.3922650             -10.6741
        58        2.0000           -0.3905338             -10.6270 (HOMO)
        59                         -0.2756297              -7.5003 (LUMO)
        60                         -0.2477463              -6.7415
        61                         -0.2278892              -6.2012
        62                         -0.2001632              -5.4467
        63                         -0.1806990              -4.9171
       ...                                ...                  ...
       128                          1.2348388              33.6017
      -------------------------------------------------------------
                  HL-Gap            0.1149041 Eh            3.1267 eV
             Fermi-level           -0.3330817 Eh           -9.0636 eV

 SCC (total)                   0 d,  0 h,  0 min,  0.101 sec
 SCC setup                      ...        0 min,  0.002 sec (  2.091%)
 Dispersion                     ...        0 min,  0.000 sec (  0.260%)
 classical contributions        ...        0 min,  0.000 sec (  0.048%)
 integral evaluation            ...        0 min,  0.020 sec ( 19.945%)
 iterations                     ...        0 min,  0.033 sec ( 32.619%)
 molecular gradient             ...        0 min,  0.045 sec ( 44.788%)
 printout                       ...        0 min,  0.000 sec (  0.237%)

         :::::::::::::::::::::::::::::::::::::::::::::::::::::
         ::                     SUMMARY                     ::
         :::::::::::::::::::::::::::::::::::::::::::::::::::::
         :: total energy             -65.019498634111 Eh    ::
         :: total w/o Gsasa/hb       -65.020788135496 Eh    ::
         :: gradient norm              0.052745693148 Eh/a0 ::
         :: HOMO-LUMO gap              3.126700301848 eV    ::
         ::.................................................::
         :: SCC energy               -65.557519815374 Eh    ::
         :: -> isotropic ES            0.126260477601 Eh    ::
         :: -> anisotropic ES         -0.013408756509 Eh    ::
         :: -> anisotropic XC          0.031411418361 Eh    ::
         :: -> dispersion             -0.050837457633 Eh    ::
         :: -> Gsolv                  -0.021502947796 Eh    ::
         ::    -> Gelec               -0.022792449182 Eh    ::
         ::    -> Gsasa                0.004526110690 Eh    ::
         ::    -> Ghb                 -0.004317369002 Eh    ::
         ::    -> Gshift               0.001080759698 Eh    ::
         :: repulsion energy           0.538021181263 Eh    ::
         :: add. restraining           0.000000000000 Eh    ::
         :: total charge               0.000000000000 e     ::
         :::::::::::::::::::::::::::::::::::::::::::::::::::::

metadynamics with 1 initial structures loaded
           -------------------------------------------------
          |           Optimal kpush determination           |
           -------------------------------------------------
      ----------------------------------------------------------- 
     |                   =====================                   |
     |                        A N C O P T                        |
     |                   =====================                   |
     |               Approximate Normal Coordinate               |
     |                Rational Function Optimizer                |
      ----------------------------------------------------------- 
target rmsd / Å         0.100000
unbiased initial rmsd   0.267445
 
iter. min.        max.        rmsd       kpush
      ----------------------------------------------------------- 
     |                   =====================                   |
     |                        A N C O P T                        |
     |                   =====================                   |
     |               Approximate Normal Coordinate               |
     |                Rational Function Optimizer                |
      ----------------------------------------------------------- 
 1    0.000000    1.863636    0.015554   -0.931818
      ----------------------------------------------------------- 
     |                   =====================                   |
     |                        A N C O P T                        |
     |                   =====================                   |
     |               Approximate Normal Coordinate               |
     |                Rational Function Optimizer                |
      ----------------------------------------------------------- 
 2    0.000000    0.931818    0.022224   -0.465909
      ----------------------------------------------------------- 
     |                   =====================                   |
     |                        A N C O P T                        |
     |                   =====================                   |
     |               Approximate Normal Coordinate               |
     |                Rational Function Optimizer                |
      ----------------------------------------------------------- 
 3    0.000000    0.465909    0.032939   -0.232955
      ----------------------------------------------------------- 
     |                   =====================                   |
     |                        A N C O P T                        |
     |                   =====================                   |
     |               Approximate Normal Coordinate               |
     |                Rational Function Optimizer                |
      ----------------------------------------------------------- 
 4    0.000000    0.232955    0.050349   -0.116477
      ----------------------------------------------------------- 
     |                   =====================                   |
     |                        A N C O P T                        |
     |                   =====================                   |
     |               Approximate Normal Coordinate               |
     |                Rational Function Optimizer                |
      ----------------------------------------------------------- 
 5    0.000000    0.116477    0.075773   -0.058239
      ----------------------------------------------------------- 
     |                   =====================                   |
     |                        A N C O P T                        |
     |                   =====================                   |
     |               Approximate Normal Coordinate               |
     |                Rational Function Optimizer                |
      ----------------------------------------------------------- 
 6    0.000000    0.058239    0.108750   -0.029119
      ----------------------------------------------------------- 
     |                   =====================                   |
     |                        A N C O P T                        |
     |                   =====================                   |
     |               Approximate Normal Coordinate               |
     |                Rational Function Optimizer                |
      ----------------------------------------------------------- 
 7    0.029119    0.058239    0.088664   -0.043679
      ----------------------------------------------------------- 
     |                   =====================                   |
     |                        A N C O P T                        |
     |                   =====================                   |
     |               Approximate Normal Coordinate               |
     |                Rational Function Optimizer                |
      ----------------------------------------------------------- 
 8    0.029119    0.043679    0.097465   -0.036399
      ----------------------------------------------------------- 
     |                   =====================                   |
     |                        A N C O P T                        |
     |                   =====================                   |
     |               Approximate Normal Coordinate               |
     |                Rational Function Optimizer                |
      ----------------------------------------------------------- 
 9    0.029119    0.036399    0.102725   -0.032759
      ----------------------------------------------------------- 
     |                   =====================                   |
     |                        A N C O P T                        |
     |                   =====================                   |
     |               Approximate Normal Coordinate               |
     |                Rational Function Optimizer                |
      ----------------------------------------------------------- 
10    0.032759    0.036399    0.100004   -0.034579
final kpush: -0.034579
           -------------------------------------------------
          |            Biased Numerical Hessian             |
           -------------------------------------------------
kpush                :  -0.03458
alpha                :   1.00000
step length          :   0.00500
SCC accuracy         :   0.30000
Hessian scale factor :   1.00000
frozen atoms in %    :   0.00000    0
RMS gradient         :   0.00005
estimated CPU  time      0.18 min
estimated wall time      0.18 min

writing file <hessian>.

 projected vibrational frequencies (cm⁻¹)
eigval :       -0.00    -0.00    -0.00    -0.00     0.00     0.00
eigval :       50.91    54.53    56.86    61.76    70.75    68.53
eigval :       69.28    71.69    74.15    83.44    75.80    79.54
eigval :       87.06   126.85   126.77   140.72   134.10   145.07
eigval :      157.75   162.62   180.18   232.32   230.52   232.36
eigval :      219.60   252.04   228.48   227.33   291.98   314.17
eigval :      315.67   325.51   335.19   378.17   416.32   439.52
eigval :      450.29   481.26   489.71   610.90   622.55   657.71
eigval :      688.48   729.70   734.78   762.69   771.12   795.99
eigval :      815.22   820.53   821.35   824.34   908.47   915.96
eigval :      933.14   937.96  1034.75  1036.79  1052.94  1056.03
eigval :     1073.68  1093.24  1093.59  1094.42  1096.79  1129.99
eigval :     1130.44  1131.57  1132.54  1156.32  1236.19  1237.11
eigval :     1237.73  1239.03  1309.67  1308.73  1310.06  1309.95
eigval :     1349.04  1390.94  1391.53  1391.78  1393.73  1433.37
eigval :     1434.62  1436.62  1441.86  1457.42  1458.51  1459.33
eigval :     1459.84  1473.98  1474.75  1475.21  1483.82  2911.87
eigval :     2917.84  2925.22  2927.37  2954.82  2958.30  2976.59
eigval :     2976.71  2980.37  3011.97  3014.51  3020.31  3021.42
eigval :     3034.42  3041.41  3046.11  3048.19  3048.87  3051.81
eigval :     3055.64  3057.60  3059.34
           -------------------------------------------------
          |                Property Printout                |
           -------------------------------------------------

    * Orbital Energies and Occupations

         #    Occupation            Energy/Eh            Energy/eV
      -------------------------------------------------------------
         1        2.0000           -0.7665968             -20.8602
       ...           ...                  ...                  ...
        46        2.0000           -0.4667970             -12.7022
        47        2.0000           -0.4600060             -12.5174
        48        2.0000           -0.4570758             -12.4377
        49        2.0000           -0.4550804             -12.3834
        50        2.0000           -0.4525980             -12.3158
        51        2.0000           -0.4497944             -12.2395
        52        2.0000           -0.4486689             -12.2089
        53        2.0000           -0.4198089             -11.4236
        54        2.0000           -0.4102350             -11.1631
        55        2.0000           -0.3962271             -10.7819
        56        2.0000           -0.3923172             -10.6755
        57        2.0000           -0.3888685             -10.5816
        58        2.0000           -0.3872120             -10.5366 (HOMO)
        59                         -0.2757943              -7.5047 (LUMO)
        60                         -0.2490838              -6.7779
        61                         -0.2253025              -6.1308
        62                         -0.1992540              -5.4220
        63                         -0.1741751              -4.7395
        64                         -0.1685181              -4.5856
        65                         -0.1631279              -4.4389
        66                         -0.1457705              -3.9666
        67                         -0.1373487              -3.7374
        68                         -0.1354936              -3.6870
        69                         -0.0488643              -1.3297
       ...                                ...                  ...
       128                          1.2341958              33.5842
      -------------------------------------------------------------
                  HL-Gap            0.1114177 Eh            3.0318 eV
             Fermi-level           -0.3315031 Eh           -9.0207 eV

     #   Z          covCN         q      C6AA      α(0)
     1   6 C        3.751    -0.122    22.896     6.824
     2   6 C        3.857     0.088    19.095     6.215
     3   8 O        1.655    -0.266    18.423     5.794
     4  15 P        3.835     0.370   144.851    21.620
     5  16 S        0.926    -0.465   159.738    21.377
     6   8 O        1.655    -0.265    18.415     5.793
     7   6 C        3.842     0.076    19.292     6.248
     8   6 C        3.751    -0.129    23.048     6.847
     9  16 S        1.984    -0.125   146.308    20.358
    10   6 C        3.807     0.031    20.055     6.375
    11  16 S        1.980    -0.142   147.042    20.409
    12  15 P        3.847     0.382   144.356    21.583
    13  16 S        0.925    -0.476   160.254    21.412
    14   8 O        1.655    -0.259    18.316     5.777
    15   6 C        3.852     0.074    19.308     6.250
    16   6 C        3.751    -0.128    23.012     6.841
    17   8 O        1.654    -0.260    18.330     5.779
    18   6 C        3.867     0.077    19.251     6.239
    19   6 C        3.751    -0.127    23.009     6.841
    20   1 H        0.925     0.065     2.137     2.286
    21   1 H        0.925     0.060     2.195     2.317
    22   1 H        0.925     0.086     1.923     2.169
    23   1 H        0.924     0.056     2.250     2.346
    24   1 H        0.924     0.073     2.049     2.239
    25   1 H        0.924     0.091     1.866     2.136
    26   1 H        0.924     0.066     2.130     2.282
    27   1 H        0.925     0.087     1.908     2.160
    28   1 H        0.925     0.057     2.236     2.339
    29   1 H        0.925     0.069     2.091     2.262
    30   1 H        0.925     0.110     1.695     2.036
    31   1 H        0.925     0.115     1.654     2.011
    32   1 H        0.924     0.064     2.156     2.296
    33   1 H        0.924     0.094     1.844     2.123
    34   1 H        0.925     0.050     2.325     2.384
    35   1 H        0.925     0.087     1.906     2.159
    36   1 H        0.925     0.071     2.073     2.252
    37   1 H        0.924     0.063     2.163     2.300
    38   1 H        0.924     0.091     1.866     2.136
    39   1 H        0.925     0.055     2.262     2.352
    40   1 H        0.925     0.085     1.931     2.173
    41   1 H        0.925     0.073     2.053     2.241

 Mol. C6AA /au·bohr⁶  :      26399.318460
 Mol. C8AA /au·bohr⁸  :     862580.743318
 Mol. α(0) /au        :        257.581144


Wiberg/Mayer (AO) data.
largest (>0.10) Wiberg bond orders for each atom

 ---------------------------------------------------------------------------
     #   Z sym  total        # sym  WBO       # sym  WBO       # sym  WBO
 ---------------------------------------------------------------------------
     1   6 C    3.985 --     2 C    1.021    21 H    0.984    20 H    0.983
                            22 H    0.975
     2   6 C    3.892 --     1 C    1.021    24 H    0.970    23 H    0.965
                             3 O    0.874
     3   8 O    2.393 --     4 P    1.325     2 C    0.874
     4  15 P    5.305 --     5 S    1.514     6 O    1.328     3 O    1.325
                             9 S    0.999
     5  16 S    1.845 --     4 P    1.514     9 S    0.134
     6   8 O    2.408 --     4 P    1.328     7 C    0.884
     7   6 C    3.885 --     8 C    1.022    26 H    0.967    25 H    0.964
                             6 O    0.884
     8   6 C    3.986 --     7 C    1.022    29 H    0.982    28 H    0.978
                            27 H    0.976
     9  16 S    2.302 --     4 P    0.999    10 C    0.986     5 S    0.134
    10   6 C    3.945 --     9 S    0.986    11 S    0.983    31 H    0.958
                            30 H    0.949
    11  16 S    2.267 --    10 C    0.983    12 P    0.968    13 S    0.128
    12  15 P    5.272 --    13 S    1.512    17 O    1.326    14 O    1.316
                            11 S    0.968
    13  16 S    1.829 --    12 P    1.512    11 S    0.128
    14   8 O    2.406 --    12 P    1.316    15 C    0.890
    15   6 C    3.891 --    16 C    1.022    32 H    0.966    33 H    0.964
                            14 O    0.890
    16   6 C    3.986 --    15 C    1.022    36 H    0.982    35 H    0.976
                            34 H    0.974
    17   8 O    2.396 --    12 P    1.326    18 C    0.875
    18   6 C    3.887 --    19 C    1.023    37 H    0.967    38 H    0.965
                            17 O    0.875
    19   6 C    3.987 --    18 C    1.023    41 H    0.982    39 H    0.977
                            40 H    0.975
    20   1 H    0.996 --     1 C    0.983
    21   1 H    0.996 --     1 C    0.984
    22   1 H    0.991 --     1 C    0.975
    23   1 H    0.997 --     2 C    0.965
    24   1 H    0.995 --     2 C    0.970
    25   1 H    0.991 --     7 C    0.964
    26   1 H    0.996 --     7 C    0.967
    27   1 H    0.992 --     8 C    0.976
    28   1 H    0.997 --     8 C    0.978
    29   1 H    0.995 --     8 C    0.982
    30   1 H    0.988 --    10 C    0.949
    31   1 H    0.986 --    10 C    0.958
    32   1 H    0.996 --    15 C    0.966
    33   1 H    0.991 --    15 C    0.964
    34   1 H    0.997 --    16 C    0.974
    35   1 H    0.992 --    16 C    0.976
    36   1 H    0.995 --    16 C    0.982
    37   1 H    0.996 --    18 C    0.967
    38   1 H    0.991 --    18 C    0.965
    39   1 H    0.997 --    19 C    0.977
    40   1 H    0.992 --    19 C    0.975
    41   1 H    0.995 --    19 C    0.982
 ---------------------------------------------------------------------------

Topologies differ in total number of bonds
Writing topology from bond orders to xtbtopo.mol

molecular dipole:
                 x           y           z       tot (Debye)
 q only:       -1.085      -0.332      -0.048
   full:       -1.046      -0.496      -0.179       2.978
molecular quadrupole (traceless):
                xx          xy          yy          xz          yz          zz
 q only:       12.444     -10.654      15.565      -6.513     -18.668     -28.009
  q+dip:       17.439     -11.527      10.050     -12.479     -16.647     -27.488
   full:       17.366     -11.285      11.744     -11.419     -17.732     -29.109

           -------------------------------------------------
          |                Geometry Summary                 |
           -------------------------------------------------

      molecular mass/u    :      384.4756129
   center of mass at/Å    :       -0.0258735       0.0008115      -0.0062441
  moments of inertia/u·Å² :        0.1374835E+04   0.3317549E+04   0.3853662E+04
rotational constants/cm⁻¹ :        0.1226157E-01   0.5081352E-02   0.4374445E-02

 * 38 selected distances

     #   Z          #   Z                                           value/Å
     1   6 C        2   6 C                                       1.5152440
     2   6 C        3   8 O                                       1.4461908
     3   8 O        4  15 P                                       1.5819090
     4  15 P        5  16 S                                       1.9632434
     4  15 P        6   8 O                                       1.5917169
     6   8 O        7   6 C                                       1.4398400
     7   6 C        8   6 C                                       1.5151492
     4  15 P        9  16 S                                       2.1041567
    11  16 S       12  15 P                                       2.1262272 (max)
    12  15 P       13  16 S                                       1.9631567
    12  15 P       14   8 O                                       1.5922126
    14   8 O       15   6 C                                       1.4363981
    15   6 C       16   6 C                                       1.5156230
    12  15 P       17   8 O                                       1.5837066
    17   8 O       18   6 C                                       1.4449428
    18   6 C       19   6 C                                       1.5147764
     1   6 C       20   1 H                                       1.0874819
     1   6 C       21   1 H                                       1.0879123
     1   6 C       22   1 H                                       1.0851404 (min)
     2   6 C       23   1 H                                       1.0954106
     2   6 C       24   1 H                                       1.0919721
     7   6 C       25   1 H                                       1.0911791
     7   6 C       26   1 H                                       1.0947513
     8   6 C       27   1 H                                       1.0858346
     8   6 C       28   1 H                                       1.0889355
     8   6 C       29   1 H                                       1.0869436
    10   6 C       30   1 H                                       1.0910683
    10   6 C       31   1 H                                       1.0866419
    15   6 C       32   1 H                                       1.0953426
    15   6 C       33   1 H                                       1.0911827
    16   6 C       34   1 H                                       1.0898769
    16   6 C       35   1 H                                       1.0855893
    16   6 C       36   1 H                                       1.0867491
    18   6 C       37   1 H                                       1.0946262
    18   6 C       38   1 H                                       1.0908166
    19   6 C       39   1 H                                       1.0890795
    19   6 C       40   1 H                                       1.0861596
    19   6 C       41   1 H                                       1.0865092

 * 5 distinct bonds (by element types)

   Z      Z             #   av. dist./Å        max./Å        min./Å
   1 H    6 C          22     1.0895092     1.0954106     1.0851404
   6 C    6 C           4     1.5151981     1.5156230     1.5147764
   6 C    8 O           4     1.4418429     1.4461908     1.4363981
   8 O   15 P           4     1.5873863     1.5922126     1.5819090
  15 P   16 S           4     2.0391960     2.1262272     1.9631567

           -------------------------------------------------
          |               Frequency Printout                |
           -------------------------------------------------
 projected vibrational frequencies (cm⁻¹)
eigval :       -0.00    -0.00    -0.00    -0.00     0.00     0.00
eigval :       50.91    54.53    56.86    61.76    70.75    68.53
eigval :       69.28    71.69    74.15    83.44    75.80    79.54
eigval :       87.06   126.85   126.77   140.72   134.10   145.07
eigval :      157.75   162.62   180.18   232.32   230.52   232.36
eigval :      219.60   252.04   228.48   227.33   291.98   314.17
eigval :      315.67   325.51   335.19   378.17   416.32   439.52
eigval :      450.29   481.26   489.71   610.90   622.55   657.71
eigval :      688.48   729.70   734.78   762.69   771.12   795.99
eigval :      815.22   820.53   821.35   824.34   908.47   915.96
eigval :      933.14   937.96  1034.75  1036.79  1052.94  1056.03
eigval :     1073.68  1093.24  1093.59  1094.42  1096.79  1129.99
eigval :     1130.44  1131.57  1132.54  1156.32  1236.19  1237.11
eigval :     1237.73  1239.03  1309.67  1308.73  1310.06  1309.95
eigval :     1349.04  1390.94  1391.53  1391.78  1393.73  1433.37
eigval :     1434.62  1436.62  1441.86  1457.42  1458.51  1459.33
eigval :     1459.84  1473.98  1474.75  1475.21  1483.82  2911.87
eigval :     2917.84  2925.22  2927.37  2954.82  2958.30  2976.59
eigval :     2976.71  2980.37  3011.97  3014.51  3020.31  3021.42
eigval :     3034.42  3041.41  3046.11  3048.19  3048.87  3051.81
eigval :     3055.64  3057.60  3059.34
 reduced masses (amu)
   1: 18.45   2: 19.88   3: 20.50   4: 18.77   5: 18.86   6: 19.30   7: 27.35   8: 23.34
   9: 23.73  10: 22.20  11: 23.06  12: 18.09  13: 13.98  14: 13.96  15: 12.84  16: 14.45
  17: 11.48  18: 12.61  19: 12.20  20: 20.68  21: 15.84  22: 16.90  23: 14.51  24: 15.22
  25: 16.54  26: 13.77  27: 14.86  28: 18.28  29: 15.15  30:  9.18  31:  5.44  32: 11.27
  33:  6.46  34:  4.73  35: 17.37  36: 19.40  37: 14.53  38: 15.07  39: 15.49  40: 13.82
  41: 22.00  42: 12.80  43: 20.69  44: 18.04  45: 19.81  46: 25.97  47: 25.95  48: 18.40
  49: 16.41  50: 20.34  51: 20.30  52: 22.49  53: 20.29  54:  5.69  55:  2.84  56:  2.68
  57:  2.68  58:  2.72  59: 12.84  60: 13.15  61: 11.18  62: 12.10  63:  8.38  64:  8.42
  65:  9.43  66:  9.81  67:  1.52  68:  7.79  69:  7.72  70:  7.76  71:  7.65  72:  5.18
  73:  5.09  74:  5.22  75:  5.11  76:  2.29  77:  2.30  78:  2.28  79:  2.29  80:  2.34
  81:  3.06  82:  2.97  83:  3.00  84:  2.99  85:  1.74  86:  3.07  87:  3.06  88:  3.06
  89:  3.05  90:  1.93  91:  1.93  92:  1.93  93:  1.90  94:  1.48  95:  1.49  96:  1.49
  97:  1.49  98:  1.55  99:  1.56 100:  1.55 101:  1.56 102:  1.77 103:  1.74 104:  1.74
 105:  1.74 106:  1.71 107:  1.69 108:  1.73 109:  1.73 110:  1.73 111:  1.75 112:  1.82
 113:  1.76 114:  1.76 115:  1.80 116:  1.59 117:  1.64 118:  1.64 119:  1.55 120:  1.85
 121:  1.76 122:  1.77 123:  1.78
 IR intensities (km·mol⁻¹)
   1:  0.16   2:  0.01   3:  0.03   4:  0.04   5:  0.03   6:  0.01   7:  2.16   8:  3.85
   9:  4.12  10:  2.87  11:  5.69  12:  4.90  13:  1.86  14:  5.83  15:  0.82  16:  1.20
  17:  0.08  18:  3.37  19:  3.69  20:  6.52  21: 11.76  22:  5.99  23:  5.44  24:  0.78
  25: 18.82  26:  6.51  27: 18.44  28:  4.66  29: 32.81  30:  0.55  31:  3.56  32:  6.55
  33:  3.39  34:  5.66  35:  2.43  36:  2.87  37: 20.78  38:  1.17  39:  6.57  40: 18.32
  41: 47.24  42: 13.35  43: 51.74  44:187.54  45: 71.19  46:200.60  47: 89.60  48:  6.66
  49: 43.62  50:285.89  51:154.32  52:296.42  53:282.69  54:  7.15  55:  5.05  56:  2.83
  57:  0.65  58:  7.04  59:380.38  60:306.18  61: 78.98  62:110.92  63:181.52  64:132.01
  65:140.74  66:113.04  67:  1.16  68:  6.95  69: 17.30  70:  7.26  71: 18.52  72: 20.74
  73: 41.48  74:  1.70  75: 10.33  76: 35.86  77:  1.97  78:  4.58  79:  3.93  80:  3.05
  81:  3.29  82:  7.39  83:  1.54  84:  4.75  85: 14.44  86:  7.28  87: 15.78  88: 15.55
  89: 12.22  90:  5.99  91:  7.09  92:  4.47  93:  3.28  94:  5.65  95: 10.27  96:  4.72
  97: 11.37  98:  9.07  99:  0.70 100:  4.21 101:  4.29 102: 33.22 103: 27.44 104: 24.97
 105: 23.27 106: 17.13 107: 23.86 108: 11.91 109:  4.91 110:  7.74 111: 56.67 112:  6.74
 113: 45.63 114: 50.33 115: 35.87 116: 21.86 117: 19.11 118: 17.27 119: 13.96 120: 10.73
 121: 11.87 122:  9.54 123: 12.95
 Raman intensities (Ä⁴*amu⁻¹)
   1:  0.00   2:  0.00   3:  0.00   4:  0.00   5:  0.00   6:  0.00   7:  0.00   8:  0.00
   9:  0.00  10:  0.00  11:  0.00  12:  0.00  13:  0.00  14:  0.00  15:  0.00  16:  0.00
  17:  0.00  18:  0.00  19:  0.00  20:  0.00  21:  0.00  22:  0.00  23:  0.00  24:  0.00
  25:  0.00  26:  0.00  27:  0.00  28:  0.00  29:  0.00  30:  0.00  31:  0.00  32:  0.00
  33:  0.00  34:  0.00  35:  0.00  36:  0.00  37:  0.00  38:  0.00  39:  0.00  40:  0.00
  41:  0.00  42:  0.00  43:  0.00  44:  0.00  45:  0.00  46:  0.00  47:  0.00  48:  0.00
  49:  0.00  50:  0.00  51:  0.00  52:  0.00  53:  0.00  54:  0.00  55:  0.00  56:  0.00
  57:  0.00  58:  0.00  59:  0.00  60:  0.00  61:  0.00  62:  0.00  63:  0.00  64:  0.00
  65:  0.00  66:  0.00  67:  0.00  68:  0.00  69:  0.00  70:  0.00  71:  0.00  72:  0.00
  73:  0.00  74:  0.00  75:  0.00  76:  0.00  77:  0.00  78:  0.00  79:  0.00  80:  0.00
  81:  0.00  82:  0.00  83:  0.00  84:  0.00  85:  0.00  86:  0.00  87:  0.00  88:  0.00
  89:  0.00  90:  0.00  91:  0.00  92:  0.00  93:  0.00  94:  0.00  95:  0.00  96:  0.00
  97:  0.00  98:  0.00  99:  0.00 100:  0.00 101:  0.00 102:  0.00 103:  0.00 104:  0.00
 105:  0.00 106:  0.00 107:  0.00 108:  0.00 109:  0.00 110:  0.00 111:  0.00 112:  0.00
 113:  0.00 114:  0.00 115:  0.00 116:  0.00 117:  0.00 118:  0.00 119:  0.00 120:  0.00
 121:  0.00 122:  0.00 123:  0.00
 output can be read by thermo (or use thermo option).
 writing <g98.out> molden fake output.
 recommended (thermochemical) frequency scaling factor: 1.0
           -------------------------------------------------
          |             Thermodynamic Functions             |
           -------------------------------------------------

Molecule has no symmetry elements
It seems to be the C1 point group
c1  symmetry found (for desy threshold:  0.10E+00) used in thermo

          ...................................................
          :                      SETUP                      :
          :.................................................:
          :  # frequencies                         117      :
          :  # imaginary freq.                       0      :
          :  linear?                             false      :
          :  only rotor calc.                    false      :
          :  symmetry                               c1      :
          :  rotational number                       1      :
          :  scaling factor                  1.0000000      :
          :  rotor cutoff                    0.0000000 cm⁻¹ :
          :  imag. cutoff                 -100.0000000 cm⁻¹ :
          :.................................................:

    mode    ω/cm⁻¹     T·S(HO)/kcal·mol⁻¹    T·S(FR)/kcal·mol⁻¹   T·S(vib)
   ------------------------------------------------------------------------
       1     50.91    -1.42566 (100.00%)    -1.05117 (  0.00%)    -1.42566
       2     54.53    -1.38523 (100.00%)    -1.03084 (  0.00%)    -1.38523
       3     56.86    -1.36058 (100.00%)    -1.01845 (  0.00%)    -1.36058
       4     61.76    -1.31189 (100.00%)    -0.99394 (  0.00%)    -1.31189
       5     70.75    -1.23206 (100.00%)    -0.95369 (  0.00%)    -1.23206
       6     68.53    -1.25081 (100.00%)    -0.96315 (  0.00%)    -1.25081
       7     69.28    -1.24440 (100.00%)    -0.95992 (  0.00%)    -1.24440
       8     71.69    -1.22433 (100.00%)    -0.94978 (  0.00%)    -1.22433
       9     74.15    -1.20456 (100.00%)    -0.93980 (  0.00%)    -1.20456
      10     83.44    -1.13540 (100.00%)    -0.90480 (  0.00%)    -1.13540
      11     75.80    -1.19165 (100.00%)    -0.93327 (  0.00%)    -1.19165
      12     79.54    -1.16341 (100.00%)    -0.91899 (  0.00%)    -1.16341
      13     87.06    -1.11061 (100.00%)    -0.89223 (  0.00%)    -1.11061
      14    126.85    -0.89245 (100.00%)    -0.78075 (  0.00%)    -0.89245
      15    126.77    -0.89278 (100.00%)    -0.78092 (  0.00%)    -0.89278
      16    140.72    -0.83306 (100.00%)    -0.75001 (  0.00%)    -0.83306
      17    134.10    -0.86057 (100.00%)    -0.76428 (  0.00%)    -0.86057
      18    145.07    -0.81569 (100.00%)    -0.74097 (  0.00%)    -0.81569
      19    157.75    -0.76821 (100.00%)    -0.71616 (  0.00%)    -0.76821
      20    162.62    -0.75107 (100.00%)    -0.70716 (  0.00%)    -0.75107
      21    180.18    -0.69365 (100.00%)    -0.67678 (  0.00%)    -0.69365
      22    232.32    -0.55485 (100.00%)    -0.60149 (  0.00%)    -0.55485
      23    230.52    -0.55900 (100.00%)    -0.60379 (  0.00%)    -0.55900
      24    232.36    -0.55475 (100.00%)    -0.60144 (  0.00%)    -0.55475
      25    219.60    -0.58508 (100.00%)    -0.61817 (  0.00%)    -0.58508
      26    252.04    -0.51170 (100.00%)    -0.57735 (  0.00%)    -0.51170
      27    228.48    -0.56375 (100.00%)    -0.60642 (  0.00%)    -0.56375
      28    227.33    -0.56646 (100.00%)    -0.60792 (  0.00%)    -0.56646
      29    291.98    -0.43604 (100.00%)    -0.53378 (  0.00%)    -0.43604
   ------------------------------------------------------------------------

   temp. (K)  partition function   enthalpy   heat capacity  entropy
                                   cal/mol     cal/K/mol   cal/K/mol   J/K/mol
 298.15  VIB  0.695E+12            15574.246     88.481    106.423
         ROT  0.101E+08              888.752      2.981     35.037
         INT  0.704E+19            16462.998     91.462    141.460
         TR   0.729E+28             1481.254      4.968     43.712
         TOT                       17944.2519    96.4302   185.1726   774.7622

       T/K    H(0)-H(T)+PV         H(T)/Eh          T*S/Eh         G(T)/Eh
   ------------------------------------------------------------------------
    298.15    0.285960E-01    0.341248E+00    0.879815E-01    0.253266E+00
   ------------------------------------------------------------------------

         :::::::::::::::::::::::::::::::::::::::::::::::::::::
         ::                  THERMODYNAMIC                  ::
         :::::::::::::::::::::::::::::::::::::::::::::::::::::
         :: total free energy         -64.807524128427 Eh   ::
         ::.................................................::
         :: total energy              -65.060790512129 Eh   ::
         :: zero point energy           0.312651879566 Eh   ::
         :: G(RRHO) w/o ZPVE           -0.059385495864 Eh   ::
         :: G(RRHO) contrib.            0.253266383702 Eh   ::
         :::::::::::::::::::::::::::::::::::::::::::::::::::::

optimized geometry written to: xtbopt.coord


           -------------------------------------------------
          | TOTAL ENERGY              -65.060790512129 Eh   |
          | TOTAL ENTHALPY            -64.719542646921 Eh   |
          | TOTAL FREE ENERGY         -64.807524128427 Eh   |
          | GRADIENT NORM               0.000052717231 Eh/α |
          | HOMO-LUMO GAP               3.031828798719 eV   |
           -------------------------------------------------

------------------------------------------------------------------------
 * finished run on 2025/04/09 at 14:03:28.548     
------------------------------------------------------------------------
 total:
 * wall-time:     0 d,  0 h,  0 min, 19.603 sec
 *  cpu-time:     0 d,  0 h,  0 min, 19.314 sec
 * ratio c/w:     0.985 speedup
 SCF:
 * wall-time:     0 d,  0 h,  0 min,  0.101 sec
 *  cpu-time:     0 d,  0 h,  0 min,  0.050 sec
 * ratio c/w:     0.494 speedup
 analytical hessian:
 * wall-time:     0 d,  0 h,  0 min, 10.558 sec
 *  cpu-time:     0 d,  0 h,  0 min, 10.516 sec
 * ratio c/w:     0.996 speedup

