
                                 *****************
                                 * O   R   C   A *
                                 *****************

                                            #,                                       
                                            ###                                      
                                            ####                                     
                                            #####                                    
                                            ######                                   
                                           ########,                                 
                                     ,,################,,,,,                         
                               ,,#################################,,                 
                          ,,##########################################,,             
                       ,#########################################, ''#####,          
                    ,#############################################,,   '####,        
                  ,##################################################,,,,####,       
                ,###########''''           ''''###############################       
              ,#####''   ,,,,##########,,,,          '''####'''          '####       
            ,##' ,,,,###########################,,,                        '##       
           ' ,,###''''                  '''############,,,                           
         ,,##''                                '''############,,,,        ,,,,,,###''
      ,#''                                            '''#######################'''  
     '                                                          ''''####''''         
             ,#######,   #######,   ,#######,      ##                                
            ,#'     '#,  ##    ##  ,#'     '#,    #''#        ,####,   ,####,        
            ##       ##  ##   ,#'  ##            #'  '#       #'       #'  '#        
            ##       ##  #######   ##           ,######,      #####,   #    #        
            '#,     ,#'  ##    ##  '#,     ,#' ,#      #,     #,   #   #,  ,#        
             '#######'   ##     ##  '#######'  #'      '#     '####' # '####'        



                #########################################################
                #                        -***-                          #
                #          Department of theory and spectroscopy        #
                #                                                       #
                #                      Frank Neese                      #
                #                                                       #
                #     Directorship, Architecture, Infrastructure        #
                #                    SHARK, DRIVERS                     #
                #        Core code/Algorithms in most modules           #
                #                                                       #
                #        Max Planck Institute fuer Kohlenforschung      #
                #                Kaiser Wilhelm Platz 1                 #
                #                 D-45470 Muelheim/Ruhr                 #
                #                      Germany                          #
                #                                                       #
                #                  All rights reserved                  #
                #                        -***-                          #
                #########################################################


                         Program Version 6.0.0  -   RELEASE  -


 With contributions from (in alphabetic order):
   Daniel Aravena         : Magnetic Suceptibility
   Michael Atanasov       : Ab Initio Ligand Field Theory (pilot matlab implementation)
   Alexander A. Auer      : GIAO ZORA, VPT2 properties, NMR spectrum
   Ute Becker             : All parallelization in ORCA, NUMFREQ, NUMCALC
   Giovanni Bistoni       : ED, misc. LED, open-shell LED, HFLD
   Martin Brehm           : Molecular dynamics
   Dmytro Bykov           : pre 5.0 version of the SCF Hessian
   Marcos Casanova-Páez   : Triplet and SCS-CIS(D). UHF-(DLPNO)-IP/EA/STEOM-CCSD. UHF-CVS-IP/STEOM-CCSD
   Vijay G. Chilkuri      : MRCI spin determinant printing, contributions to CSF-ICE
   Pauline Colinet        : FMM embedding
   Dipayan Datta          : RHF DLPNO-CCSD density
   Achintya Kumar Dutta   : EOM-CC, STEOM-CC
   Nicolas Foglia         : Exact transition moments, OPA infrastructure, MCD improvements
   Dmitry Ganyushin       : Spin-Orbit,Spin-Spin,Magnetic field MRCI
   Miquel Garcia          : C-PCM and meta-GGA Hessian, CCSD/C-PCM, Gaussian charge scheme
   Tiago L. C. Gouveia    : GS-ROHF, GS-ROCIS
   Yang Guo               : DLPNO-NEVPT2, F12-NEVPT2, CIM, IAO-localization
   Andreas Hansen         : Spin unrestricted coupled pair/coupled cluster methods
   Ingolf Harden          : AUTO-CI MPn and infrastructure 
   Benjamin Helmich-Paris : MC-RPA, TRAH-(SCF,CASSCF), AVAS, COSX integrals, SCF dyn. polar.
   Lee Huntington         : MR-EOM, pCC
   Robert Izsak           : Overlap fitted RIJCOSX, COSX-SCS-MP3, EOM
   Riya Kayal             : Wick's Theorem for AUTO-CI, AUTO-CI UHF-CCSDT
   Emily Kempfer          : AUTO-CI, RHF CISDT and CCSDT
   Christian Kollmar      : KDIIS, OOCD, Brueckner-CCSD(T), CCSD density, CASPT2, CASPT2-K, improved NEVPT2
   Axel Koslowski         : Symmetry handling
   Simone Kossmann        : Meta GGA functionals, TD-DFT gradient, OOMP2, (MP2 Hessian; deprecated post 5.0)
   Lucas Lang             : DCDCAS
   Marvin Lechner         : AUTO-CI (C++ implementation), FIC-MRCC
   Spencer Leger          : CASSCF response
   Dagmar Lenk            : GEPOL surface, SMD, ORCA-2-JSON
   Dimitrios Liakos       : Extrapolation schemes; Compound Job, initial MDCI parallelization
   Dimitrios Manganas     : Further ROCIS development; embedding schemes. LFT, Crystal Embedding
   Dimitrios Pantazis     : SARC Basis sets
   Anastasios Papadopoulos: AUTO-CI, single reference methods and gradients
   Taras Petrenko         : pre 6.0 DFT Hessian and TD-DFT gradient, (ASA, deprecated), ECA, 1-Electron XAS/XES, NRVS
   Peter Pinski           : DLPNO-MP2, DLPNO-MP2 Gradient
   Christoph Reimann      : Effective Core Potentials
   Marius Retegan         : Local ZFS, SOC
   Christoph Riplinger    : Optimizer, TS searches, QM/MM, DLPNO-CCSD(T), (RO)-DLPNO pert. Triples
   Michael Roemelt        : Original ROCIS implementation
   Masaaki Saitow         : Open-shell DLPNO-CCSD energy and density
   Barbara Sandhoefer     : DKH picture change effects
   Kantharuban Sivalingam : CASSCF convergence/infrastructure, NEVPT2 and variants, FIC-MRCI
   Bernardo de Souza      : ESD, SOC TD-DFT
   Georgi Stoychev        : AutoAux, RI-MP2 NMR, DLPNO-MP2 response, X2C
   Van Anh Tran           : RI-MP2 g-tensors
   Willem Van den Heuvel  : Paramagnetic NMR
   Zikuan Wang            : NOTCH, Electric field optimization 
   Frank Wennmohs         : Technical directorship and infrastructure
   Hang Xu                : AUTO-CI-Response properties 


 We gratefully acknowledge several colleagues who have allowed us to
 interface, adapt or use parts of their codes:
   Stefan Grimme, W. Hujo, H. Kruse, P. Pracht,  : VdW corrections, initial TS optimization,
                  C. Bannwarth, S. Ehlert,         DFT functionals, gCP, sTDA/sTD-DF
                  L. Wittmann, M. Mueller
   Ed Valeev, F. Pavosevic, A. Kumar             : LibInt (2-el integral package), F12 methods
   Garnet Chan, S. Sharma, J. Yang, R. Olivares  : DMRG
   Ulf Ekstrom                                   : XCFun DFT Library
   Mihaly Kallay                                 : mrcc  (arbitrary order and MRCC methods)
   Frank Weinhold                                : gennbo (NPA and NBO analysis)
   Simon Mueller                                 : openCOSMO-RS
   Christopher J. Cramer and Donald G. Truhlar   : smd solvation model
   Lars Goerigk                                  : TD-DFT with DH, B97 family of functionals
   V. Asgeirsson, H. Jonsson                     : NEB implementation
   FAccTs GmbH                                   : IRC, NEB, NEB-TS, DLPNO-Multilevel, CI-OPT
                                                   MM, QMMM, 2- and 3-layer-ONIOM, Crystal-QMMM,
                                                   LR-CPCM, SF, NACMEs, symmetry and pop. for TD-DFT,
                                                   nearIR, NL-DFT gradient (VV10), updates on ESD,
                                                   ML-optimized integration grids, MBIS, APM,
                                                   GOAT, DOCKER, SOLVATOR, interface openCOSMO-RS
   S Lehtola, MJT Oliveira, MAL Marques          : LibXC Library
   Liviu Ungur et al                             : ANISO software


 Your calculation uses the libint2 library for the computation of 2-el integrals
 For citations please refer to: http://libint.valeyev.net

 Your ORCA version has been built with support for libXC version: 6.2.2
 For citations please refer to: https://libxc.gitlab.io

 This ORCA versions uses:
   CBLAS   interface :  Fast vector & matrix operations
   LAPACKE interface :  Fast linear algebra routines
   SCALAPACK package :  Parallel linear algebra routines
   Shared memory     :  Shared parallel matrices
   BLAS/LAPACK       :  OpenBLAS 0.3.27  USE64BITINT DYNAMIC_ARCH NO_AFFINITY SapphireRapids SINGLE_THREADED
        Core in use  :  SapphireRapids
   Copyright (c) 2011-2014, The OpenBLAS Project


Your calculation utilizes the geometrical counterpoise correction gCP
Please cite in your paper:
H.Kruse, S. Grimme J.Chem.Phys., 136, (2012), 154101 
   

Your calculation utilizes the atom-pairwise dispersion correction
based on EEQ partial charges (D4)


================================================================================

----- Orbital basis set information -----
Your calculation utilizes the basis: def2-mTZVPP
   Stefan Grimme, Andreas Hansen, Sebastian Ehlert, and Jan-Michael Mewes 
   J. Chem. Phys. 154, 064103 (2021). DOI: 10.1063/5.0040021

----- AuxJ basis set information -----
Your calculation utilizes the auxiliary basis: def2/J
   F. Weigend, Phys. Chem. Chem. Phys. 8, 1057 (2006).

================================================================================
                                        WARNINGS
                       Please study these warnings very carefully!
================================================================================

Using LibXC functional ID 497 : Re-regularized SCAN exchange by Furness et al
[ 1]  J. W. Furness, A. D. Kaplan, J. Ning, J. P. Perdew, and J. Sun.,  J. Phys. Chem. Lett. 11, 8208-8215 (2020)
[ 2]  J. W. Furness, A. D. Kaplan, J. Ning, J. P. Perdew, and J. Sun.,  J. Phys. Chem. Lett. 11, 9248-9248 (2020)
Using LibXC functional ID 498 : Re-regularized SCAN correlation by Furness et al
[ 1]  J. W. Furness, A. D. Kaplan, J. Ning, J. P. Perdew, and J. Sun.,  J. Phys. Chem. Lett. 11, 8208-8215 (2020)
[ 2]  J. W. Furness, A. D. Kaplan, J. Ning, J. P. Perdew, and J. Sun.,  J. Phys. Chem. Lett. 11, 9248-9248 (2020)
Using LibXC functional ID 497 : Re-regularized SCAN exchange by Furness et al
[ 1]  J. W. Furness, A. D. Kaplan, J. Ning, J. P. Perdew, and J. Sun.,  J. Phys. Chem. Lett. 11, 8208-8215 (2020)
[ 2]  J. W. Furness, A. D. Kaplan, J. Ning, J. P. Perdew, and J. Sun.,  J. Phys. Chem. Lett. 11, 9248-9248 (2020)
Using LibXC functional ID 498 : Re-regularized SCAN correlation by Furness et al
[ 1]  J. W. Furness, A. D. Kaplan, J. Ning, J. P. Perdew, and J. Sun.,  J. Phys. Chem. Lett. 11, 8208-8215 (2020)
[ 2]  J. W. Furness, A. D. Kaplan, J. Ning, J. P. Perdew, and J. Sun.,  J. Phys. Chem. Lett. 11, 9248-9248 (2020)

================================================================================
                                       INPUT FILE
================================================================================
NAME = sp_gas.inp
|  1> ! r2scan-3c def2/J RI DEFGRID2 scfconv6 printgap
|  2> %output
|  3>     printlevel normal
|  4> end
|  5> * xyz 0 1
|  6> C 5.4606768882 -1.5463539906 -0.1659394544
|  7> C 4.8234205102 -0.9693561776 -1.4124735132
|  8> O 3.3890395725 -1.1178275385 -1.3908451697
|  9> P 2.4749110081 -0.2799516926 -0.4106197931
| 10> S 3.1469663639 1.5162629642 0.013240881
| 11> O 2.3235454639 -1.3201731657 0.7858145777
| 12> C 1.4190863963 -1.2423656942 1.8996543177
| 13> C 1.7566253612 -0.1138922986 2.8539193528
| 14> S 0.6617912285 -0.3840314181 -1.5105073286
| 15> C 0.0530435198 1.2903836868 -1.1601483057
| 16> S -0.6856704456 1.4500145018 0.487928114
| 17> P -2.3771112894 0.2464584391 0.0992209569
| 18> S -3.1971564841 0.4008636995 -1.6790335966
| 19> O -3.3491373063 0.5156162242 1.3249886019
| 20> C -4.3496581262 1.5489959979 1.305712712
| 21> C -3.7385898374 2.9353102135 1.303018898
| 22> O -1.7808926354 -1.1757823831 0.4725708548
| 23> C -2.3541681968 -2.4007425965 -0.0277351681
| 24> C -3.7147948879 -2.6704778772 0.5790743465
| 25> H 5.1590000767 -2.5820666067 -0.0349684436
| 26> H 6.5412065348 -1.4898474657 -0.2524556412
| 27> H 5.1427935908 -0.9747966363 0.7051586093
| 28> H 5.1289170888 -1.5046153739 -2.3122706586
| 29> H 5.0624629195 0.0943885909 -1.5119535635
| 30> H 0.3963568797 -1.1411203663 1.5243995533
| 31> H 1.5327596071 -2.2146083886 2.383740463
| 32> H 2.7946755464 -0.1835784961 3.1688080481
| 33> H 1.5994034697 0.8521637539 2.3784182431
| 34> H 1.1120691443 -0.182165836 3.7243583083
| 35> H -0.7001656661 1.5106680043 -1.9159272984
| 36> H 0.8812678513 1.9979716638 -1.1998917705
| 37> H -4.9781548048 1.4051386316 0.4209595999
| 38> H -4.9315813196 1.3663321322 2.2099913623
| 39> H -3.2164479665 3.1110741763 0.3632551831
| 40> H -4.5249651356 3.6754291819 1.4113694905
| 41> H -3.0293514546 3.0379505152 2.1204802115
| 42> H -2.4191250833 -2.3311060169 -1.1184101086
| 43> H -1.625982753 -3.1645437212 0.2483387109
| 44> H -4.4239328099 -1.9131836184 0.2469264674
| 45> H -4.0653015327 -3.6463945375 0.2581547084
| 46> H -3.6540861718 -2.6438528309 1.6638346678
| 47> *
| 48> 
| 49>                          ****END OF INPUT****
================================================================================

                       ****************************
                       * Single Point Calculation *
                       ****************************

---------------------------------
CARTESIAN COORDINATES (ANGSTROEM)
---------------------------------
  C      5.460677   -1.546354   -0.165939
  C      4.823421   -0.969356   -1.412474
  O      3.389040   -1.117828   -1.390845
  P      2.474911   -0.279952   -0.410620
  S      3.146966    1.516263    0.013241
  O      2.323545   -1.320173    0.785815
  C      1.419086   -1.242366    1.899654
  C      1.756625   -0.113892    2.853919
  S      0.661791   -0.384031   -1.510507
  C      0.053044    1.290384   -1.160148
  S     -0.685670    1.450015    0.487928
  P     -2.377111    0.246458    0.099221
  S     -3.197156    0.400864   -1.679034
  O     -3.349137    0.515616    1.324989
  C     -4.349658    1.548996    1.305713
  C     -3.738590    2.935310    1.303019
  O     -1.780893   -1.175782    0.472571
  C     -2.354168   -2.400743   -0.027735
  C     -3.714795   -2.670478    0.579074
  H      5.159000   -2.582067   -0.034968
  H      6.541207   -1.489847   -0.252456
  H      5.142794   -0.974797    0.705159
  H      5.128917   -1.504615   -2.312271
  H      5.062463    0.094389   -1.511954
  H      0.396357   -1.141120    1.524400
  H      1.532760   -2.214608    2.383740
  H      2.794676   -0.183578    3.168808
  H      1.599403    0.852164    2.378418
  H      1.112069   -0.182166    3.724358
  H     -0.700166    1.510668   -1.915927
  H      0.881268    1.997972   -1.199892
  H     -4.978155    1.405139    0.420960
  H     -4.931581    1.366332    2.209991
  H     -3.216448    3.111074    0.363255
  H     -4.524965    3.675429    1.411369
  H     -3.029351    3.037951    2.120480
  H     -2.419125   -2.331106   -1.118410
  H     -1.625983   -3.164544    0.248339
  H     -4.423933   -1.913184    0.246926
  H     -4.065302   -3.646395    0.258155
  H     -3.654086   -2.643853    1.663835

----------------------------
CARTESIAN COORDINATES (A.U.)
----------------------------
  NO LB      ZA    FRAG     MASS         X           Y           Z
   0 C     6.0000    0    12.011   10.319184   -2.922186   -0.313580
   1 C     6.0000    0    12.011    9.114944   -1.831818   -2.669188
   2 O     8.0000    0    15.999    6.404357   -2.112388   -2.628316
   3 P    15.0000    0    30.974    4.676904   -0.529032   -0.775959
   4 S    16.0000    0    32.060    5.946905    2.865322    0.025022
   5 O     8.0000    0    15.999    4.390865   -2.494766    1.484974
   6 C     6.0000    0    12.011    2.681685   -2.347731    3.589826
   7 C     6.0000    0    12.011    3.319541   -0.215225    5.393126
   8 S    16.0000    0    32.060    1.250604   -0.725714   -2.854445
   9 C     6.0000    0    12.011    0.100238    2.438472   -2.192363
  10 S    16.0000    0    32.060   -1.295729    2.740130    0.922051
  11 P    15.0000    0    30.974   -4.492089    0.465739    0.187500
  12 S    16.0000    0    32.060   -6.041750    0.757523   -3.172914
  13 O     8.0000    0    15.999   -6.328952    0.974373    2.503866
  14 C     6.0000    0    12.011   -8.219663    2.927178    2.467439
  15 C     6.0000    0    12.011   -7.064911    5.546932    2.462349
  16 O     8.0000    0    15.999   -3.365399   -2.221907    0.893029
  17 C     6.0000    0    12.011   -4.448733   -4.536746   -0.052412
  18 C     6.0000    0    12.011   -7.019945   -5.046472    1.094292
  19 H     1.0000    0     1.008    9.749097   -4.879399   -0.066081
  20 H     1.0000    0     1.008   12.361089   -2.815404   -0.477072
  21 H     1.0000    0     1.008    9.718471   -1.842099    1.332557
  22 H     1.0000    0     1.008    9.692249   -2.843311   -4.369558
  23 H     1.0000    0     1.008    9.566668    0.178369   -2.857178
  24 H     1.0000    0     1.008    0.749006   -2.156405    2.880698
  25 H     1.0000    0     1.008    2.896496   -4.185003    4.504617
  26 H     1.0000    0     1.008    5.281171   -0.346913    5.988179
  27 H     1.0000    0     1.008    3.022435    1.610356    4.494559
  28 H     1.0000    0     1.008    2.101506   -0.344244    7.038017
  29 H     1.0000    0     1.008   -1.323121    2.854749   -3.620578
  30 H     1.0000    0     1.008    1.665355    3.775619   -2.267467
  31 H     1.0000    0     1.008   -9.407349    2.655327    0.795498
  32 H     1.0000    0     1.008   -9.319338    2.581994    4.176278
  33 H     1.0000    0     1.008   -6.078206    5.879078    0.686453
  34 H     1.0000    0     1.008   -8.550945    6.945555    2.667102
  35 H     1.0000    0     1.008   -5.724645    5.740894    4.007127
  36 H     1.0000    0     1.008   -4.571484   -4.405152   -2.113489
  37 H     1.0000    0     1.008   -3.072662   -5.980121    0.469292
  38 H     1.0000    0     1.008   -8.360021   -3.615393    0.466623
  39 H     1.0000    0     1.008   -7.682307   -6.890687    0.487842
  40 H     1.0000    0     1.008   -6.905222   -4.996158    3.144192

--------------------------------
INTERNAL COORDINATES (ANGSTROEM)
--------------------------------
 C      0   0   0     0.000000000000     0.00000000     0.00000000
 C      1   0   0     1.514222350666     0.00000000     0.00000000
 O      2   1   0     1.442206713577   111.53009028     0.00000000
 P      3   2   1     1.580667186452   121.99937293    70.78699036
 S      4   3   2     1.964103705411   114.87952274    31.75785710
 O      4   3   2     1.592616540383   100.05605148   264.46755211
 C      6   4   3     1.436920030478   127.35734531   191.30444055
 C      7   6   4     1.515917713670   112.83724062   291.62582750
 S      4   3   2     2.123202419739    98.43132714   156.42998057
 C      9   4   3     1.815761868003    98.11347567   217.04211232
 S     10   9   4     1.813101267151   113.15224101   281.58247637
 P     11  10   9     2.112016235287    96.24794374   291.52182399
 S     12  11  10     1.964307603924   117.13951549   321.83555283
 O     12  11  10     1.587383636787   104.57581858   192.58869977
 C     14  12  11     1.438501730161   122.50439487    91.04501378
 C     15  14  12     1.515017760485   112.13768616   292.24246252
 O     12  11  10     1.586705954477    99.58764237    87.88011756
 C     17  12  11     1.442039704814   122.03239998   201.45768517
 C     18  17  12     1.514027708200   111.68799315   290.79762334
 H      1   2   3     1.086675171068   110.21637004    54.82600348
 H      1   2   3     1.085459513347   109.48043513   175.46217396
 H      1   2   3     1.089283910008   109.60711789   295.07470530
 H      2   1   3     1.090626182351   111.97981383   244.02572679
 H      2   1   3     1.094801573968   110.68046806   120.99404969
 H      7   6   4     1.094094337227   109.11902166    55.25734131
 H      7   6   4     1.092024199246   103.29065752   171.53030575
 H      8   7   6     1.086995512200   110.32044923   306.55946450
 H      8   7   6     1.088156388147   110.71000969    66.99070073
 H      8   7   6     1.085254794003   109.01514060   186.51101805
 H     10   9   4     1.089518767194   106.52109471   161.42236908
 H     10   9   4     1.090053132410   109.68422699    40.45218761
 H     15  14  12     1.094756176608   108.40507239    54.51925987
 H     15  14  12     1.090743126606   103.86644456   171.46174743
 H     16  15  14     1.089348862307   110.02940265    67.36138605
 H     16  15  14     1.085311958793   109.36509268   186.89790043
 H     16  15  14     1.087104923289   110.37737477   307.38690681
 H     18  17  12     1.094824404257   108.37196490    53.29339252
 H     18  17  12     1.090808409081   103.98172466   169.89907692
 H     19  18  17     1.089354579749   109.81357495    66.31190359
 H     19  18  17     1.085475771272   109.38239744   185.82228801
 H     19  18  17     1.086783969319   110.21107013   306.36161928

---------------------------
INTERNAL COORDINATES (A.U.)
---------------------------
 C      0   0   0     0.000000000000     0.00000000     0.00000000
 C      1   0   0     2.861465548621     0.00000000     0.00000000
 O      2   1   0     2.725375717164   111.53009028     0.00000000
 P      3   2   1     2.987028091270   121.99937293    70.78699036
 S      4   3   2     3.711618101848   114.87952274    31.75785710
 O      4   3   2     3.009609097677   100.05605148   264.46755211
 C      6   4   3     2.715385333949   127.35734531   191.30444055
 C      7   6   4     2.864669320396   112.83724062   291.62582750
 S      4   3   2     4.012271100185    98.43132714   156.42998057
 C      9   4   3     3.431292654942    98.11347567   217.04211232
 S     10   9   4     3.426264847982   113.15224101   281.58247637
 P     11  10   9     3.991132275089    96.24794374   291.52182399
 S     12  11  10     3.712003414195   117.13951549   321.83555283
 O     12  11  10     2.999720342995   104.57581858   192.58869977
 C     14  12  11     2.718374313177   122.50439487    91.04501378
 C     15  14  12     2.862968655344   112.13768616   292.24246252
 O     12  11  10     2.998439709023    99.58764237    87.88011756
 C     17  12  11     2.725060116340   122.03239998   201.45768517
 C     18  17  12     2.861097727666   111.68799315   290.79762334
 H      1   2   3     2.053518469850   110.21637004    54.82600348
 H      1   2   3     2.051221209686   109.48043513   175.46217396
 H      1   2   3     2.058448272002   109.60711789   295.07470530
 H      2   1   3     2.060984799128   111.97981383   244.02572679
 H      2   1   3     2.068875145785   110.68046806   120.99404969
 H      7   6   4     2.067538662032   109.11902166    55.25734131
 H      7   6   4     2.063626668190   103.29065752   171.53030575
 H      8   7   6     2.054123826860   110.32044923   306.55946450
 H      8   7   6     2.056317564474   110.71000969    66.99070073
 H      8   7   6     2.050834346190   109.01514060   186.51101805
 H     10   9   4     2.058892087764   106.52109471   161.42236908
 H     10   9   4     2.059901891679   109.68422699    40.45218761
 H     15  14  12     2.068789357207   108.40507239    54.51925987
 H     15  14  12     2.061205791742   103.86644456   171.46174743
 H     16  15  14     2.058571014058   110.02940265    67.36138605
 H     16  15  14     2.050942371989   109.36509268   186.89790043
 H     16  15  14     2.054330583853   110.37737477   307.38690681
 H     18  17  12     2.068918288779   108.37196490    53.29339252
 H     18  17  12     2.061329157741   103.98172466   169.89907692
 H     19  18  17     2.058581818459   109.81357495    66.31190359
 H     19  18  17     2.051251932711   109.38239744   185.82228801
 H     19  18  17     2.053724068748   110.21107013   306.36161928

---------------------
BASIS SET INFORMATION
---------------------
There are 5 groups of distinct atoms

 Group   1 Type C   : 11s6p1d contracted to 5s3p1d pattern {62111/411/1}
 Group   2 Type O   : 11s6p2d contracted to 5s3p2d pattern {62111/411/11}
 Group   3 Type P   : 14s9p2d contracted to 5s4p2d pattern {73211/6111/11}
 Group   4 Type S   : 14s9p2d contracted to 5s4p2d pattern {73211/6111/11}
 Group   5 Type H   : 4s1p contracted to 2s1p pattern {31/1}

Atom   0C    basis set group =>   1
Atom   1C    basis set group =>   1
Atom   2O    basis set group =>   2
Atom   3P    basis set group =>   3
Atom   4S    basis set group =>   4
Atom   5O    basis set group =>   2
Atom   6C    basis set group =>   1
Atom   7C    basis set group =>   1
Atom   8S    basis set group =>   4
Atom   9C    basis set group =>   1
Atom  10S    basis set group =>   4
Atom  11P    basis set group =>   3
Atom  12S    basis set group =>   4
Atom  13O    basis set group =>   2
Atom  14C    basis set group =>   1
Atom  15C    basis set group =>   1
Atom  16O    basis set group =>   2
Atom  17C    basis set group =>   1
Atom  18C    basis set group =>   1
Atom  19H    basis set group =>   5
Atom  20H    basis set group =>   5
Atom  21H    basis set group =>   5
Atom  22H    basis set group =>   5
Atom  23H    basis set group =>   5
Atom  24H    basis set group =>   5
Atom  25H    basis set group =>   5
Atom  26H    basis set group =>   5
Atom  27H    basis set group =>   5
Atom  28H    basis set group =>   5
Atom  29H    basis set group =>   5
Atom  30H    basis set group =>   5
Atom  31H    basis set group =>   5
Atom  32H    basis set group =>   5
Atom  33H    basis set group =>   5
Atom  34H    basis set group =>   5
Atom  35H    basis set group =>   5
Atom  36H    basis set group =>   5
Atom  37H    basis set group =>   5
Atom  38H    basis set group =>   5
Atom  39H    basis set group =>   5
Atom  40H    basis set group =>   5
---------------------------------
AUXILIARY/J BASIS SET INFORMATION
---------------------------------
There are 5 groups of distinct atoms

 Group   1 Type C   : 12s5p4d2f1g contracted to 6s4p3d1f1g pattern {711111/2111/211/2/1}
 Group   2 Type O   : 12s5p4d2f1g contracted to 6s4p3d1f1g pattern {711111/2111/211/2/1}
 Group   3 Type P   : 14s5p5d2f1g contracted to 8s4p3d1f1g pattern {71111111/2111/311/2/1}
 Group   4 Type S   : 14s5p5d2f1g contracted to 8s4p3d1f1g pattern {71111111/2111/311/2/1}
 Group   5 Type H   : 5s2p1d contracted to 3s1p1d pattern {311/2/1}

Atom   0C    basis set group =>   1
Atom   1C    basis set group =>   1
Atom   2O    basis set group =>   2
Atom   3P    basis set group =>   3
Atom   4S    basis set group =>   4
Atom   5O    basis set group =>   2
Atom   6C    basis set group =>   1
Atom   7C    basis set group =>   1
Atom   8S    basis set group =>   4
Atom   9C    basis set group =>   1
Atom  10S    basis set group =>   4
Atom  11P    basis set group =>   3
Atom  12S    basis set group =>   4
Atom  13O    basis set group =>   2
Atom  14C    basis set group =>   1
Atom  15C    basis set group =>   1
Atom  16O    basis set group =>   2
Atom  17C    basis set group =>   1
Atom  18C    basis set group =>   1
Atom  19H    basis set group =>   5
Atom  20H    basis set group =>   5
Atom  21H    basis set group =>   5
Atom  22H    basis set group =>   5
Atom  23H    basis set group =>   5
Atom  24H    basis set group =>   5
Atom  25H    basis set group =>   5
Atom  26H    basis set group =>   5
Atom  27H    basis set group =>   5
Atom  28H    basis set group =>   5
Atom  29H    basis set group =>   5
Atom  30H    basis set group =>   5
Atom  31H    basis set group =>   5
Atom  32H    basis set group =>   5
Atom  33H    basis set group =>   5
Atom  34H    basis set group =>   5
Atom  35H    basis set group =>   5
Atom  36H    basis set group =>   5
Atom  37H    basis set group =>   5
Atom  38H    basis set group =>   5
Atom  39H    basis set group =>   5
Atom  40H    basis set group =>   5

Checking for AutoStart:
The File: sp_gas.gbw exists
Trying to determine its content:
     ... Fine, the file contains calculation information
     ... Fine, the calculation information was read
     ... Fine, the file contains a basis set
     ... Fine, the basis set was read
     ... Fine, the file contains a geometry
     ... Fine, the geometry was read
     ... Fine, the file contains a set of orbitals
     ... Fine, the orbitals can be read
     => possible old guess file was deleted
     => GBW file was renamed to GES file
     => GES file is set as startup file
     => Guess is set to MORead
     ... now leaving AutoStart

------------------------------------------------------------------------------
                             ORCA STARTUP CALCULATIONS
                           -- RI-GTO INTEGRALS CHOSEN --
------------------------------------------------------------------------------
------------------------------------------------------------------------------
                   ___                                                        
                  /   \      - P O W E R E D   B Y -                         
                 /     \                                                     
                 |  |  |   _    _      __       _____    __    __             
                 |  |  |  | |  | |    /  \     |  _  \  |  |  /  |          
                  \  \/   | |  | |   /    \    | | | |  |  | /  /          
                 / \  \   | |__| |  /  /\  \   | |_| |  |  |/  /          
                |  |  |   |  __  | /  /__\  \  |    /   |      \           
                |  |  |   | |  | | |   __   |  |    \   |  |\   \          
                \     /   | |  | | |  |  |  |  | |\  \  |  | \   \       
                 \___/    |_|  |_| |__|  |__|  |_| \__\ |__|  \__/        
                                                                              
                      - O R C A' S   B I G   F R I E N D -                    
                                      &                                       
                       - I N T E G R A L  F E E D E R -                       
                                                                              
 v1 FN, 2020, v2 2021, v3 2022-2024                                           
------------------------------------------------------------------------------


----------------------
SHARK INTEGRAL PACKAGE
----------------------

Number of atoms                             ...     41
Number of basis functions                   ...    539
Number of shells                            ...    253
Maximum angular momentum                    ...      2
Integral batch strategy                     ... SHARK/LIBINT Hybrid
RI-J (if used) integral strategy            ... SPLIT-RIJ (Revised 2003 algorithm where possible)
Printlevel                                  ...      1
Contraction scheme used                     ... SEGMENTED contraction
Prescreening option                         ... SCHWARTZ
   Thresh                                   ... 1.000e-10
   Tcut                                     ... 1.000e-11
   Tpresel                                  ... 1.000e-11 
Coulomb Range Separation                    ... NOT USED
Exchange Range Separation                   ... NOT USED
Multipole approximations                    ... NOT USED
Finite Nucleus Model                        ... NOT USED
CABS basis                                  ... NOT available
Auxiliary Coulomb fitting basis             ... AVAILABLE
   # of basis functions in Aux-J            ...   1185
   # of shells in Aux-J                     ...    407
   Maximum angular momentum in Aux-J        ...      4
Auxiliary J/K fitting basis                 ... NOT available
Auxiliary Correlation fitting basis         ... NOT available
Auxiliary 'external' fitting basis          ... NOT available

Checking pre-screening integrals            ... done (  0.0 sec) Dimension = 253
Check shell pair data                       ... done (  0.0 sec)
Shell pair information
Shell pair cut-off parameter TPreSel        ...   1.0e-11
Total number of shell pairs                 ...     32131
Shell pairs after pre-screening             ...     21001
Total number of primitive shell pairs       ...    124843
Primitive shell pairs kept                  ...     49112
          la=0 lb=0:   5922 shell pairs
          la=1 lb=0:   7624 shell pairs
          la=1 lb=1:   2505 shell pairs
          la=2 lb=0:   2809 shell pairs
          la=2 lb=1:   1798 shell pairs
          la=2 lb=2:    343 shell pairs

Calculating one electron integrals          ... done (  0.1 sec)
Calculating RI/J V-Matrix + Cholesky decomp.... done (  0.1 sec)
Calculating Nuclear repulsion               ... done (  0.0 sec) ENN=   2753.060897991540 Eh

Diagonalization of the overlap matrix:
Smallest eigenvalue                        ... 2.524e-04
Time for diagonalization                   ...    0.035 sec
Threshold for overlap eigenvalues          ... 1.000e-07
Number of eigenvalues below threshold      ... 0
Time for construction of square roots      ...    0.054 sec
Total time needed                          ...    0.100 sec

-------------------
DFT GRID GENERATION
-------------------

General Integration Accuracy     IntAcc      ... 4.388
Radial Grid Type                 RadialGrid  ... OptM3 with GC (2021)
Angular Grid (max. ang.)         AngularGrid ... 4 (Lebedev-302)
Angular grid pruning method      GridPruning ... 4 (adaptive)
Weight generation scheme         WeightScheme... mBecke (2022)
Basis function cutoff            BFCut       ... 1.0000e-10
Integration weight cutoff        WCut        ... 1.0000e-14
Partially contracted basis set               ... off
Rotationally invariant grid construction     ... off
Angular grids for H and He will be reduced by one unit
Diffuse basis detected: some atoms will have their outermost
                        angular grid increased by 1.

Total number of grid points                  ...   192552
Total number of batches                      ...     3030
Average number of points per batch           ...       63
Average number of grid points per atom       ...     4696
Initializing property integral containers    ... done (  0.0 sec)

SHARK setup successfully completed in   3.0 seconds

Maximum memory used throughout the entire STARTUP-calculation: 101.0 MB
-------------------------------------------------------------------------------
                                 ORCA GUESS
                   Start orbitals & Density for SCF / CASSCF
-------------------------------------------------------------------------------

------------
SCF SETTINGS
------------
Hamiltonian:
 Density Functional     Method          .... DFT(GTOs)
  Functional kind                       .... Exchange
  Functional name                       .... Re-regularized SCAN exchange by Furness et al
  Functional family                     .... MGGA
  Functional refs                              
    [ 0] J. W. Furness, A. D. Kaplan, J. Ning, J. P. Perdew, and J. Sun.,  J. Phys. Chem. Lett. 11, 8208-8215 (2020), doi: 10.1021/acs.jpclett.0c02405
    [ 1] J. W. Furness, A. D. Kaplan, J. Ning, J. P. Perdew, and J. Sun.,  J. Phys. Chem. Lett. 11, 9248-9248 (2020), doi: 10.1021/acs.jpclett.0c03077
  Functional external parameters        .... 6
    Parameter  0 _c1        =  6.670000e-01 : c1 parameter        
    Parameter  1 _c2        =  8.000000e-01 : c2 parameter        
    Parameter  2 _d         =  1.240000e+00 : d parameter         
    Parameter  3 _k1        =  6.500000e-02 : k1 parameter        
    Parameter  4 _eta       =  1.000000e-03 : eta parameter       
    Parameter  5 _dp2       =  3.610000e-01 : dp2 parameter       
  Functional kind                       .... Correlation
  Functional name                       .... Re-regularized SCAN correlation by Furness et al
  Functional family                     .... MGGA
  Functional refs                              
    [ 0] J. W. Furness, A. D. Kaplan, J. Ning, J. P. Perdew, and J. Sun.,  J. Phys. Chem. Lett. 11, 8208-8215 (2020), doi: 10.1021/acs.jpclett.0c02405
    [ 1] J. W. Furness, A. D. Kaplan, J. Ning, J. P. Perdew, and J. Sun.,  J. Phys. Chem. Lett. 11, 9248-9248 (2020), doi: 10.1021/acs.jpclett.0c03077
  Functional external parameters        .... 1
    Parameter  0 _eta       =  1.000000e-03 : Regularization parameter
 Gradients option       PostSCFGGA      .... off
 RI-approximation to the Coulomb term is turned on
   Number of AuxJ basis functions       .... 1185


General Settings:
 Integral files         IntName         .... sp_gas
 Hartree-Fock type      HFTyp           .... RHF
 Total Charge           Charge          ....    0
 Multiplicity           Mult            ....    1
 Number of Electrons    NEL             ....  202
 Basis Dimension        Dim             ....  539
 Nuclear Repulsion      ENuc            ....   2753.0608979915 Eh

Convergence Acceleration:
 AO-DIIS                CNVDIIS         .... on
   Start iteration      DIISMaxIt       ....    12
   Startup error        DIISStart       ....  0.200000
   # of expansion vecs  DIISMaxEq       ....     5
   Bias factor          DIISBfac        ....   1.050
   Max. coefficient     DIISMaxC        ....  10.000
 MO-DIIS                CNVKDIIS        .... off
 Trust-Rad. Augm. Hess. CNVTRAH         .... auto
   Auto Start mean grad. ratio tolernc. ....  1.125000
   Auto Start start iteration           ....     1
   Auto Start num. interpolation iter.  ....    10
   Max. Number of Micro iterations      ....    24
   Max. Number of Macro iterations      .... Maxiter - #DIIS iter
   Number of Davidson start vectors     ....     2
   Converg. threshold    (grad. norm)   ....   3.330e-04
   Grad. Scal. Fac. for Micro threshold ....   0.100
   Minimum threshold for Micro iter.    ....   1.000e-02
   NR start threshold (gradient norm)   ....   1.000e-04
   Initial trust radius                 ....   0.400
   Minimum AH scaling param. (alpha)    ....   1.000
   Maximum AH scaling param. (alpha)    .... 1000.000
   Quad. conv. algorithm                .... NR
   White noise on init. David. guess    .... on
   Maximum white noise                  ....   0.010
   Pseudo random numbers                .... off
   Inactive MOs                         .... canonical
   Orbital update algorithm             .... Taylor
   Preconditioner                       .... Diag
   Full preconditioner red. dimension   ....   250
   COSX micro iterations for RIJONX calc.... off
 SOSCF                  CNVSOSCF        .... on
   Start iteration      SOSCFMaxIt      ....   150
   Startup grad/error   SOSCFStart      ....  0.003300
   Hessian update       SOSCFHessUp     .... L-BFGS
 Level Shifting         CNVShift        .... on
   Level shift para.    LevelShift      ....    0.2500
   Turn off err/grad.   ShiftErr        ....    0.0010
 Zerner damping         CNVZerner       .... off
 Static damping         CNVDamp         .... on
   Fraction old density DampFac         ....    0.7000
   Max. Damping (<1)    DampMax         ....    0.9800
   Min. Damping (>=0)   DampMin         ....    0.0000
   Turn off err/grad.   DampErr         ....    0.1000

SCF Procedure:
 Maximum # iterations   MaxIter         ....   125
 SCF integral mode      SCFMode         .... Direct
   Integral package                     .... SHARK and LIBINT hybrid scheme
 Reset frequency        DirectResetFreq ....    20
 Integral Threshold     Thresh          ....  1.000e-10 Eh
 Primitive CutOff       TCut            ....  1.000e-11 Eh

Convergence Tolerance:
 Convergence Check Mode ConvCheckMode   .... Total+1el-Energy
 Convergence forced     ConvForced      .... 0
 Energy Change          TolE            ....  1.000e-06 Eh
 1-El. energy change                    ....  1.000e-03 Eh
 Orbital Gradient       TolG            ....  3.330e-04
 Orbital Rotation angle TolX            ....  3.330e-04
 DIIS Error             TolErr          ....  1.000e-06

---------------------
INITIAL GUESS: MOREAD
---------------------
Guess MOs are being read from file: sp_gas.ges
Input Geometry matches current geometry (good)
Atom 0: N(Shells)= 9 and 6 - projection required
Input basis set needs projection
NBasis(read)= 334
NBasis(calc)= 539
Basis set overlap was calculated
Using GuessMode=FMatrix for the initial guess
C*T matrix was formed
Effective Fockian was calculated
Effective Fockian was diagonalized
Initial density was built
                      ------------------
                      INITIAL GUESS DONE (   0.2 sec)
                      ------------------
             **** ENERGY FILE WAS UPDATED (sp_gas.en.tmp) ****
Finished Guess after   0.6 sec
Maximum memory used throughout the entire GUESS-calculation: 58.3 MB

-------------------------------------------------------------------------------------------
                                      ORCA LEAN-SCF
                              memory conserving SCF solver
-------------------------------------------------------------------------------------------

----------------------------------------D-I-I-S--------------------------------------------
Iteration    Energy (Eh)           Delta-E    RMSDP     MaxDP     DIISErr   Damp  Time(sec)
-------------------------------------------------------------------------------------------
               ***  Starting incremental Fock matrix formation  ***
    1    -2932.0113302874638066     0.00e+00  2.21e-03  8.95e-02  6.34e-01  0.700   9.0
    2    -2932.1533372224425875    -1.42e-01  1.81e-03  7.18e-02  4.45e-01  0.700   7.3
    3    -2932.2536331695578156    -1.00e-01  1.33e-03  5.23e-02  3.12e-01  0.700   7.1
    4    -2932.3239940527851104    -7.04e-02  9.51e-04  3.74e-02  2.19e-01  0.700   6.8
                               ***Turning on AO-DIIS***
    5    -2932.3733202286616688    -4.93e-02  6.88e-04  2.69e-02  1.53e-01  0.700   6.8
    6    -2932.4078815024827236    -3.46e-02  4.86e-04  1.90e-02  1.07e-01  0.700   6.6
    7    -2932.4321036903925233    -2.42e-02  3.42e-04  1.34e-02  7.50e-02  0.700   6.6
    8    -2932.4490716730874738    -1.70e-02  8.03e-04  3.14e-02  5.25e-02  0.000   6.7
                              *** Initializing SOSCF ***
---------------------------------------S-O-S-C-F--------------------------------------
Iteration    Energy (Eh)           Delta-E    RMSDP     MaxDP     MaxGrad    Time(sec)
--------------------------------------------------------------------------------------
    9    -2932.4887050492820890    -3.96e-02  4.94e-06  1.95e-04  1.45e-04     6.9
               *** Restarting incremental Fock matrix formation ***
   10    -2932.4887056810498507    -6.32e-07  4.57e-06  1.86e-04  3.16e-05     9.0
                  *** Gradient check signals convergence ***

               *****************************************************
               *                     SUCCESS                       *
               *           SCF CONVERGED AFTER  10 CYCLES          *
               *****************************************************

             **** ENERGY FILE WAS UPDATED (sp_gas.en.tmp) ****

----------------
TOTAL SCF ENERGY
----------------

Total Energy       :      -2932.48870568104985 Eh          -79797.07449 eV

Components:
Nuclear Repulsion  :       2753.06089799154006 Eh           74914.59562 eV
Electronic Energy  :      -5685.54960367258900 Eh         -154711.67011 eV
One Electron Energy:      -9527.01021336098711 Eh         -259243.12757 eV
Two Electron Energy:       3841.46060968839765 Eh          104531.45747 eV

Virial components:
Potential Energy   :      -5856.15939544752473 Eh         -159354.19856 eV
Kinetic Energy     :       2923.67068976647488 Eh           79557.12407 eV
Virial Ratio       :          2.00301607699713

DFT components:
N(Alpha)           :      100.999902699742 electrons
N(Beta)            :      100.999902699742 electrons
N(Total)           :      201.999805399485 electrons
E(X)               :     -233.539635729871 Eh       
E(C)               :       -7.121268156292 Eh       
E(XC)              :     -240.660903886163 Eh       

---------------
SCF CONVERGENCE
---------------

  Last Energy change         ...    6.3177e-07  Tolerance :   1.0000e-06
  Last MAX-Density change    ...    1.8595e-04  Tolerance :   1.0000e-05
  Last RMS-Density change    ...    4.5671e-06  Tolerance :   1.0000e-06
  Last DIIS Error            ...    1.4526e-04  Tolerance :   1.0000e-06
  Last Orbital Gradient      ...    3.1571e-05  Tolerance :   3.3300e-04
  Last Orbital Rotation      ...    8.1567e-05  Tolerance :   3.3300e-04


----------------
ORBITAL ENERGIES
----------------

  NO   OCC          E(Eh)            E(eV) 
   0   2.0000     -88.577508     -2410.3165 
   1   2.0000     -88.572850     -2410.1898 
   2   2.0000     -88.526398     -2408.9258 
   3   2.0000     -88.521623     -2408.7958 
   4   2.0000     -76.917831     -2093.0406 
   5   2.0000     -76.913346     -2092.9185 
   6   2.0000     -18.998211      -516.9676 
   7   2.0000     -18.993106      -516.8287 
   8   2.0000     -18.987172      -516.6672 
   9   2.0000     -18.986806      -516.6573 
  10   2.0000     -10.103586      -274.9326 
  11   2.0000     -10.103146      -274.9206 
  12   2.0000     -10.099725      -274.8275 
  13   2.0000     -10.095921      -274.7240 
  14   2.0000     -10.093109      -274.6475 
  15   2.0000     -10.031886      -272.9815 
  16   2.0000     -10.031610      -272.9740 
  17   2.0000     -10.026690      -272.8401 
  18   2.0000     -10.019981      -272.6576 
  19   2.0000      -7.871931      -214.2061 
  20   2.0000      -7.866974      -214.0712 
  21   2.0000      -7.821069      -212.8221 
  22   2.0000      -7.816491      -212.6975 
  23   2.0000      -6.596507      -179.5001 
  24   2.0000      -6.591614      -179.3669 
  25   2.0000      -5.818742      -158.3360 
  26   2.0000      -5.815816      -158.2564 
  27   2.0000      -5.813916      -158.2047 
  28   2.0000      -5.810927      -158.1234 
  29   2.0000      -5.809068      -158.0728 
  30   2.0000      -5.803959      -157.9337 
  31   2.0000      -5.768657      -156.9731 
  32   2.0000      -5.764125      -156.8498 
  33   2.0000      -5.761367      -156.7748 
  34   2.0000      -5.761136      -156.7685 
  35   2.0000      -5.756961      -156.6549 
  36   2.0000      -5.756301      -156.6369 
  37   2.0000      -4.741876      -129.0330 
  38   2.0000      -4.741396      -129.0200 
  39   2.0000      -4.740365      -128.9919 
  40   2.0000      -4.736948      -128.8989 
  41   2.0000      -4.736649      -128.8908 
  42   2.0000      -4.735434      -128.8577 
  43   2.0000      -1.054640       -28.6982 
  44   2.0000      -1.046400       -28.4740 
  45   2.0000      -1.015769       -27.6405 
  46   2.0000      -1.006075       -27.3767 
  47   2.0000      -0.801376       -21.8066 
  48   2.0000      -0.759450       -20.6657 
  49   2.0000      -0.748084       -20.3564 
  50   2.0000      -0.734684       -19.9918 
  51   2.0000      -0.727094       -19.7852 
  52   2.0000      -0.711564       -19.3626 
  53   2.0000      -0.688284       -18.7292 
  54   2.0000      -0.671121       -18.2621 
  55   2.0000      -0.636960       -17.3326 
  56   2.0000      -0.626427       -17.0459 
  57   2.0000      -0.609127       -16.5752 
  58   2.0000      -0.601872       -16.3778 
  59   2.0000      -0.590840       -16.0776 
  60   2.0000      -0.524641       -14.2762 
  61   2.0000      -0.514779       -14.0079 
  62   2.0000      -0.496199       -13.5023 
  63   2.0000      -0.487818       -13.2742 
  64   2.0000      -0.478070       -13.0090 
  65   2.0000      -0.462265       -12.5789 
  66   2.0000      -0.461447       -12.5566 
  67   2.0000      -0.452680       -12.3180 
  68   2.0000      -0.445436       -12.1209 
  69   2.0000      -0.434076       -11.8118 
  70   2.0000      -0.423325       -11.5192 
  71   2.0000      -0.414277       -11.2731 
  72   2.0000      -0.409606       -11.1459 
  73   2.0000      -0.406631       -11.0650 
  74   2.0000      -0.401294       -10.9198 
  75   2.0000      -0.390594       -10.6286 
  76   2.0000      -0.386989       -10.5305 
  77   2.0000      -0.376005       -10.2316 
  78   2.0000      -0.371441       -10.1074 
  79   2.0000      -0.366175        -9.9641 
  80   2.0000      -0.362431        -9.8622 
  81   2.0000      -0.357032        -9.7153 
  82   2.0000      -0.355136        -9.6637 
  83   2.0000      -0.351680        -9.5697 
  84   2.0000      -0.347820        -9.4647 
  85   2.0000      -0.333880        -9.0853 
  86   2.0000      -0.323606        -8.8058 
  87   2.0000      -0.313728        -8.5370 
  88   2.0000      -0.307509        -8.3677 
  89   2.0000      -0.304730        -8.2921 
  90   2.0000      -0.297284        -8.0895 
  91   2.0000      -0.291184        -7.9235 
  92   2.0000      -0.287458        -7.8221 
  93   2.0000      -0.282963        -7.6998 
  94   2.0000      -0.272036        -7.4025 
  95   2.0000      -0.248062        -6.7501 
  96   2.0000      -0.231417        -6.2972 
  97   2.0000      -0.228308        -6.2126 
  98   2.0000      -0.221054        -6.0152 
  99   2.0000      -0.218340        -5.9413 
 100   2.0000      -0.213577        -5.8117 
 101   0.0000      -0.049275        -1.3408 
 102   0.0000      -0.030025        -0.8170 
 103   0.0000      -0.003488        -0.0949 
 104   0.0000      -0.000021        -0.0006 
 105   0.0000       0.013394         0.3645 
 106   0.0000       0.027233         0.7410 
 107   0.0000       0.034025         0.9259 
 108   0.0000       0.036499         0.9932 
 109   0.0000       0.048494         1.3196 
 110   0.0000       0.068328         1.8593 
 111   0.0000       0.077483         2.1084 
*Only the first 10 virtual orbitals were printed.

                    ********************************
                    * MULLIKEN POPULATION ANALYSIS *
                    ********************************

-----------------------
MULLIKEN ATOMIC CHARGES
-----------------------
   0 C :   -0.439106
   1 C :   -0.156465
   2 O :   -0.301265
   3 P :    0.660273
   4 S :   -0.474437
   5 O :   -0.244159
   6 C :   -0.173133
   7 C :   -0.424802
   8 S :   -0.121901
   9 C :   -0.240997
  10 S :   -0.126147
  11 P :    0.675650
  12 S :   -0.477133
  13 O :   -0.304949
  14 C :   -0.151248
  15 C :   -0.451121
  16 O :   -0.275134
  17 C :   -0.151747
  18 C :   -0.439655
  19 H :    0.155136
  20 H :    0.146943
  21 H :    0.167179
  22 H :    0.149590
  23 H :    0.172829
  24 H :    0.179169
  25 H :    0.145877
  26 H :    0.148840
  27 H :    0.175120
  28 H :    0.143097
  29 H :    0.216514
  30 H :    0.215496
  31 H :    0.171355
  32 H :    0.149245
  33 H :    0.177689
  34 H :    0.149245
  35 H :    0.156865
  36 H :    0.174707
  37 H :    0.152169
  38 H :    0.166810
  39 H :    0.148144
  40 H :    0.155458
Sum of atomic charges:    0.0000000

--------------------------------
MULLIKEN REDUCED ORBITAL CHARGES
--------------------------------
  0 C s       :     3.303370  s :     3.303370
      pz      :     0.981292  p :     3.109974
      px      :     1.061144
      py      :     1.067538
      dz2     :     0.006847  d :     0.025762
      dxz     :     0.003840
      dyz     :     0.006035
      dx2y2   :     0.006855
      dxy     :     0.002185

  1 C s       :     3.287891  s :     3.287891
      pz      :     1.027184  p :     2.813714
      px      :     0.685818
      py      :     1.100711
      dz2     :     0.011042  d :     0.054860
      dxz     :     0.011846
      dyz     :     0.006547
      dx2y2   :     0.015786
      dxy     :     0.009639

  2 O s       :     3.736024  s :     3.736024
      pz      :     1.670034  p :     4.550807
      px      :     1.179475
      py      :     1.701297
      dz2     :     0.006973  d :     0.014435
      dxz     :     0.004691
      dyz     :     0.010446
      dx2y2   :    -0.007482
      dxy     :    -0.000193

  3 P s       :     5.123220  s :     5.123220
      pz      :     2.846091  p :     8.505046
      px      :     2.822130
      py      :     2.836825
      dz2     :     0.133638  d :     0.711461
      dxz     :     0.113248
      dyz     :     0.170979
      dx2y2   :     0.138681
      dxy     :     0.154917

  4 S s       :     5.915284  s :     5.915284
      pz      :     3.678634  p :    10.490838
      px      :     3.582147
      py      :     3.230057
      dz2     :     0.008980  d :     0.068315
      dxz     :     0.005361
      dyz     :     0.014389
      dx2y2   :     0.019315
      dxy     :     0.020269

  5 O s       :     3.719295  s :     3.719295
      pz      :     1.272515  p :     4.506915
      px      :     1.613760
      py      :     1.620639
      dz2     :    -0.004911  d :     0.017949
      dxz     :    -0.000401
      dyz     :     0.010050
      dx2y2   :     0.010181
      dxy     :     0.003031

  6 C s       :     3.297576  s :     3.297576
      pz      :     0.820410  p :     2.820553
      px      :     0.952625
      py      :     1.047518
      dz2     :     0.011041  d :     0.055004
      dxz     :     0.014470
      dyz     :     0.012471
      dx2y2   :     0.012988
      dxy     :     0.004034

  7 C s       :     3.298308  s :     3.298308
      pz      :     1.008089  p :     3.100904
      px      :     1.078628
      py      :     1.014187
      dz2     :     0.003157  d :     0.025590
      dxz     :     0.005856
      dyz     :     0.006584
      dx2y2   :     0.008199
      dxy     :     0.001794

  8 S s       :     5.906369  s :     5.906369
      pz      :     3.632634  p :    10.112701
      px      :     3.260602
      py      :     3.219465
      dz2     :     0.012437  d :     0.102830
      dxz     :     0.025027
      dyz     :     0.015968
      dx2y2   :     0.029496
      dxy     :     0.019901

  9 C s       :     3.181261  s :     3.181261
      pz      :     0.958745  p :     3.024105
      px      :     1.118721
      py      :     0.946639
      dz2     :     0.008382  d :     0.035631
      dxz     :     0.008267
      dyz     :     0.005940
      dx2y2   :     0.005254
      dxy     :     0.007789

 10 S s       :     5.907820  s :     5.907820
      pz      :     3.237044  p :    10.110765
      px      :     3.235931
      py      :     3.637790
      dz2     :     0.027871  d :     0.107562
      dxz     :     0.025861
      dyz     :     0.016209
      dx2y2   :     0.013714
      dxy     :     0.023907

 11 P s       :     5.126266  s :     5.126266
      pz      :     2.823283  p :     8.481936
      px      :     2.828922
      py      :     2.829731
      dz2     :     0.152891  d :     0.716149
      dxz     :     0.152261
      dyz     :     0.170153
      dx2y2   :     0.119114
      dxy     :     0.121731

 12 S s       :     5.916329  s :     5.916329
      pz      :     3.233257  p :    10.492828
      px      :     3.573296
      py      :     3.686275
      dz2     :     0.023778  d :     0.067976
      dxz     :     0.022494
      dyz     :     0.012745
      dx2y2   :     0.004873
      dxy     :     0.004086

 13 O s       :     3.740546  s :     3.740546
      pz      :     1.587089  p :     4.540377
      px      :     1.392852
      py      :     1.560436
      dz2     :     0.003680  d :     0.024026
      dxz     :     0.009818
      dyz     :     0.002626
      dx2y2   :     0.002704
      dxy     :     0.005199

 14 C s       :     3.284784  s :     3.284784
      pz      :     1.130688  p :     2.811642
      px      :     0.859004
      py      :     0.821950
      dz2     :     0.008108  d :     0.054823
      dxz     :     0.011954
      dyz     :     0.006074
      dx2y2   :     0.012790
      dxy     :     0.015897

 15 C s       :     3.315082  s :     3.315082
      pz      :     1.097464  p :     3.110298
      px      :     1.068632
      py      :     0.944202
      dz2     :     0.005196  d :     0.025741
      dxz     :     0.006824
      dyz     :     0.002748
      dx2y2   :     0.003881
      dxy     :     0.007092

 16 O s       :     3.730703  s :     3.730703
      pz      :     1.733052  p :     4.526741
      px      :     1.688278
      py      :     1.105411
      dz2     :     0.002539  d :     0.017689
      dxz     :     0.007900
      dyz     :    -0.002514
      dx2y2   :    -0.003596
      dxy     :     0.013360

 17 C s       :     3.288240  s :     3.288240
      pz      :     1.050410  p :     2.808954
      px      :     0.964293
      py      :     0.794251
      dz2     :     0.013157  d :     0.054552
      dxz     :     0.006479
      dyz     :     0.008368
      dx2y2   :     0.010612
      dxy     :     0.015937

 18 C s       :     3.306564  s :     3.306564
      pz      :     1.062064  p :     3.107281
      px      :     0.956709
      py      :     1.088507
      dz2     :     0.007833  d :     0.025810
      dxz     :     0.004383
      dyz     :     0.002125
      dx2y2   :     0.005457
      dxy     :     0.006011

 19 H s       :     0.826713  s :     0.826713
      pz      :     0.003680  p :     0.018151
      px      :     0.004108
      py      :     0.010363

 20 H s       :     0.834576  s :     0.834576
      pz      :     0.003634  p :     0.018482
      px      :     0.011103
      py      :     0.003744

 21 H s       :     0.814460  s :     0.814460
      pz      :     0.008505  p :     0.018362
      px      :     0.004197
      py      :     0.005659

 22 H s       :     0.833016  s :     0.833016
      pz      :     0.009156  p :     0.017394
      px      :     0.002825
      py      :     0.005413

 23 H s       :     0.809260  s :     0.809260
      pz      :     0.003417  p :     0.017910
      px      :     0.002544
      py      :     0.011949

 24 H s       :     0.802531  s :     0.802531
      pz      :     0.003507  p :     0.018299
      px      :     0.011269
      py      :     0.003522

 25 H s       :     0.836814  s :     0.836814
      pz      :     0.004357  p :     0.017309
      px      :     0.003035
      py      :     0.009917

 26 H s       :     0.832915  s :     0.832915
      pz      :     0.004143  p :     0.018246
      px      :     0.010537
      py      :     0.003566

 27 H s       :     0.805950  s :     0.805950
      pz      :     0.005278  p :     0.018930
      px      :     0.003709
      py      :     0.009944

 28 H s       :     0.838360  s :     0.838360
      pz      :     0.008606  p :     0.018543
      px      :     0.006211
      py      :     0.003726

 29 H s       :     0.764137  s :     0.764137
      pz      :     0.007492  p :     0.019349
      px      :     0.008325
      py      :     0.003532

 30 H s       :     0.764651  s :     0.764651
      pz      :     0.003249  p :     0.019853
      px      :     0.009678
      py      :     0.006926

 31 H s       :     0.810882  s :     0.810882
      pz      :     0.009404  p :     0.017763
      px      :     0.005541
      py      :     0.002818

 32 H s       :     0.833359  s :     0.833359
      pz      :     0.009053  p :     0.017396
      px      :     0.005359
      py      :     0.002984

 33 H s       :     0.803865  s :     0.803865
      pz      :     0.009239  p :     0.018447
      px      :     0.005514
      py      :     0.003693

 34 H s       :     0.832251  s :     0.832251
      pz      :     0.003848  p :     0.018503
      px      :     0.007283
      py      :     0.007372

 35 H s       :     0.824977  s :     0.824977
      pz      :     0.007682  p :     0.018158
      px      :     0.006976
      py      :     0.003500

 36 H s       :     0.807444  s :     0.807444
      pz      :     0.012089  p :     0.017848
      px      :     0.003209
      py      :     0.002550

 37 H s       :     0.830423  s :     0.830423
      pz      :     0.003824  p :     0.017408
      px      :     0.006893
      py      :     0.006690

 38 H s       :     0.814827  s :     0.814827
      pz      :     0.004263  p :     0.018363
      px      :     0.006781
      py      :     0.007320

 39 H s       :     0.833372  s :     0.833372
      pz      :     0.004284  p :     0.018483
      px      :     0.004550
      py      :     0.009649

 40 H s       :     0.826397  s :     0.826397
      pz      :     0.011102  p :     0.018144
      px      :     0.003484
      py      :     0.003559


------------------------
MULLIKEN OVERLAP CHARGES
------------------------
B(  0-C ,  1-C ) :   0.3863 B(  0-C ,  2-O ) :  -0.1647 B(  0-C ,  5-O ) :   0.0691 
B(  0-C , 19-H ) :   0.8039 B(  0-C , 20-H ) :   0.7942 B(  0-C , 21-H ) :   0.8180 
B(  0-C , 23-H ) :  -0.1125 B(  1-C ,  2-O ) :   0.3268 B(  1-C ,  3-P ) :  -0.1678 
B(  1-C , 19-H ) :  -0.0583 B(  1-C , 20-H ) :  -0.0662 B(  1-C , 21-H ) :  -0.0712 
B(  1-C , 22-H ) :   0.7987 B(  1-C , 23-H ) :   0.8809 B(  2-O ,  3-P ) :   0.7751 
B(  2-O ,  4-S ) :  -0.0994 B(  2-O ,  5-O ) :  -0.2370 B(  2-O ,  8-S ) :  -0.1108 
B(  2-O , 22-H ) :  -0.1015 B(  2-O , 23-H ) :  -0.0796 B(  3-P ,  4-S ) :   1.1946 
B(  3-P ,  5-O ) :   0.4717 B(  3-P ,  6-C ) :  -0.1949 B(  3-P ,  8-S ) :   0.7357 
B(  3-P ,  9-C ) :  -0.0839 B(  4-S ,  5-O ) :  -0.0775 B(  4-S ,  8-S ) :  -0.0976 
B(  5-O ,  6-C ) :   0.3004 B(  5-O ,  7-C ) :  -0.1276 B(  5-O ,  8-S ) :  -0.1118 
B(  5-O , 24-H ) :  -0.0789 B(  5-O , 25-H ) :  -0.1130 B(  6-C ,  7-C ) :   0.4265 
B(  6-C , 24-H ) :   0.8543 B(  6-C , 25-H ) :   0.8186 B(  6-C , 26-H ) :  -0.0632 
B(  6-C , 27-H ) :  -0.0600 B(  6-C , 28-H ) :  -0.0708 B(  7-C , 24-H ) :  -0.1108 
B(  7-C , 25-H ) :  -0.0592 B(  7-C , 26-H ) :   0.8100 B(  7-C , 27-H ) :   0.8231 
B(  7-C , 28-H ) :   0.7968 B(  8-S ,  9-C ) :   0.4067 B(  8-S , 10-S ) :  -0.1628 
B(  8-S , 29-H ) :  -0.0738 B(  8-S , 30-H ) :  -0.0526 B(  9-C , 10-S ) :   0.3667 
B(  9-C , 11-P ) :  -0.1124 B(  9-C , 29-H ) :   0.7900 B(  9-C , 30-H ) :   0.7788 
B( 10-S , 11-P ) :   0.7461 B( 10-S , 12-S ) :  -0.1009 B( 10-S , 13-O ) :  -0.0833 
B( 10-S , 16-O ) :  -0.1572 B( 10-S , 29-H ) :  -0.0624 B( 10-S , 30-H ) :  -0.0710 
B( 11-P , 12-S ) :   1.2375 B( 11-P , 13-O ) :   0.4889 B( 11-P , 14-C ) :  -0.1477 
B( 11-P , 16-O ) :   0.5863 B( 11-P , 17-C ) :  -0.1633 B( 12-S , 13-O ) :  -0.0931 
B( 12-S , 16-O ) :  -0.0914 B( 13-O , 14-C ) :   0.3462 B( 13-O , 15-C ) :  -0.1700 
B( 13-O , 16-O ) :  -0.2179 B( 13-O , 18-C ) :   0.0586 B( 13-O , 31-H ) :  -0.0830 
B( 13-O , 32-H ) :  -0.1088 B( 14-C , 15-C ) :   0.4369 B( 14-C , 31-H ) :   0.8792 
B( 14-C , 32-H ) :   0.7934 B( 14-C , 33-H ) :  -0.0844 B( 14-C , 34-H ) :  -0.0505 
B( 14-C , 35-H ) :  -0.0670 B( 15-C , 31-H ) :  -0.1143 B( 15-C , 33-H ) :   0.8397 
B( 15-C , 34-H ) :   0.7749 B( 15-C , 35-H ) :   0.8070 B( 16-O , 17-C ) :   0.2901 
B( 16-O , 18-C ) :  -0.1590 B( 16-O , 36-H ) :  -0.0744 B( 16-O , 37-H ) :  -0.1011 
B( 17-C , 18-C ) :   0.4057 B( 17-C , 36-H ) :   0.8742 B( 17-C , 37-H ) :   0.8031 
B( 17-C , 38-H ) :  -0.0698 B( 17-C , 39-H ) :  -0.0642 B( 17-C , 40-H ) :  -0.0647 
B( 18-C , 36-H ) :  -0.1061 B( 18-C , 37-H ) :  -0.0505 B( 18-C , 38-H ) :   0.8192 
B( 18-C , 39-H ) :   0.7926 B( 18-C , 40-H ) :   0.8125 B( 24-H , 25-H ) :  -0.0513 
B( 31-H , 32-H ) :  -0.0514 


                     *******************************
                     * LOEWDIN POPULATION ANALYSIS *
                     *******************************

----------------------
LOEWDIN ATOMIC CHARGES
----------------------
   0 C :   -0.399640
   1 C :    0.022840
   2 O :   -0.664847
   3 P :    0.392517
   4 S :   -0.128951
   5 O :   -0.661077
   6 C :    0.020911
   7 C :   -0.411316
   8 S :    0.181607
   9 C :   -0.422326
  10 S :    0.164437
  11 P :    0.376650
  12 S :   -0.128660
  13 O :   -0.660447
  14 C :    0.020867
  15 C :   -0.406065
  16 O :   -0.696057
  17 C :    0.018787
  18 C :   -0.398605
  19 H :    0.160599
  20 H :    0.159208
  21 H :    0.165238
  22 H :    0.179901
  23 H :    0.179814
  24 H :    0.192157
  25 H :    0.178752
  26 H :    0.159132
  27 H :    0.166551
  28 H :    0.158445
  29 H :    0.191500
  30 H :    0.193911
  31 H :    0.179563
  32 H :    0.180072
  33 H :    0.166016
  34 H :    0.160050
  35 H :    0.160857
  36 H :    0.181884
  37 H :    0.180426
  38 H :    0.164596
  39 H :    0.159958
  40 H :    0.160747

-------------------------------
LOEWDIN REDUCED ORBITAL CHARGES
-------------------------------
  0 C s       :     2.975244  s :     2.975244
      pz      :     1.094289  p :     3.363530
      px      :     1.122477
      py      :     1.146764
      dz2     :     0.016125  d :     0.060865
      dxz     :     0.008246
      dyz     :     0.014071
      dx2y2   :     0.017552
      dxy     :     0.004871

  1 C s       :     2.876191  s :     2.876191
      pz      :     1.073569  p :     2.978536
      px      :     0.797336
      py      :     1.107632
      dz2     :     0.024180  d :     0.122433
      dxz     :     0.027074
      dyz     :     0.013670
      dx2y2   :     0.035982
      dxy     :     0.021527

  2 O s       :     3.461930  s :     3.461930
      pz      :     1.661143  p :     4.736374
      px      :     1.382587
      py      :     1.692644
      dz2     :     0.065054  d :     0.466544
      dxz     :     0.122737
      dyz     :     0.049759
      dx2y2   :     0.115130
      dxy     :     0.113865

  3 P s       :     4.654737  s :     4.654737
      pz      :     2.740414  p :     8.388857
      px      :     2.799780
      py      :     2.848663
      dz2     :     0.265373  d :     1.563890
      dxz     :     0.300259
      dyz     :     0.376936
      dx2y2   :     0.329374
      dxy     :     0.291948

  4 S s       :     5.567455  s :     5.567455
      pz      :     3.620466  p :    10.418640
      px      :     3.527664
      py      :     3.270511
      dz2     :     0.019773  d :     0.142856
      dxz     :     0.011531
      dyz     :     0.026780
      dx2y2   :     0.042390
      dxy     :     0.042382

  5 O s       :     3.462658  s :     3.462658
      pz      :     1.460529  p :     4.733775
      px      :     1.619423
      py      :     1.653822
      dz2     :     0.108226  d :     0.464645
      dxz     :     0.110661
      dyz     :     0.123089
      dx2y2   :     0.073514
      dxy     :     0.049155

  6 C s       :     2.872840  s :     2.872840
      pz      :     0.907564  p :     2.982794
      px      :     0.992469
      py      :     1.082761
      dz2     :     0.022786  d :     0.123455
      dxz     :     0.031879
      dyz     :     0.030795
      dx2y2   :     0.030940
      dxy     :     0.007056

  7 C s       :     2.976659  s :     2.976659
      pz      :     1.104703  p :     3.373941
      px      :     1.155089
      py      :     1.114149
      dz2     :     0.007144  d :     0.060716
      dxz     :     0.014642
      dyz     :     0.015123
      dx2y2   :     0.020110
      dxy     :     0.003697

  8 S s       :     5.440603  s :     5.440603
      pz      :     3.577872  p :    10.085996
      px      :     3.248654
      py      :     3.259469
      dz2     :     0.032674  d :     0.291795
      dxz     :     0.064099
      dyz     :     0.043398
      dx2y2   :     0.087546
      dxy     :     0.064078

  9 C s       :     3.012383  s :     3.012383
      pz      :     1.090161  p :     3.327077
      px      :     1.150728
      py      :     1.086188
      dz2     :     0.020754  d :     0.082867
      dxz     :     0.019590
      dyz     :     0.012450
      dx2y2   :     0.011731
      dxy     :     0.018341

 10 S s       :     5.437045  s :     5.437045
      pz      :     3.281727  p :    10.096157
      px      :     3.242587
      py      :     3.571843
      dz2     :     0.084978  d :     0.302361
      dxz     :     0.077722
      dyz     :     0.041667
      dx2y2   :     0.035748
      dxy     :     0.062246

 11 P s       :     4.651132  s :     4.651132
      pz      :     2.847593  p :     8.396467
      px      :     2.795469
      py      :     2.753405
      dz2     :     0.361613  d :     1.575752
      dxz     :     0.350053
      dyz     :     0.296765
      dx2y2   :     0.248128
      dxy     :     0.319194

 12 S s       :     5.567750  s :     5.567750
      pz      :     3.272995  p :    10.422065
      px      :     3.530142
      py      :     3.618928
      dz2     :     0.052821  d :     0.138845
      dxz     :     0.049285
      dyz     :     0.020074
      dx2y2   :     0.009012
      dxy     :     0.007654

 13 O s       :     3.465840  s :     3.465840
      pz      :     1.639657  p :     4.731648
      px      :     1.518994
      py      :     1.572997
      dz2     :     0.089237  d :     0.462959
      dxz     :     0.116372
      dyz     :     0.060034
      dx2y2   :     0.099693
      dxy     :     0.097623

 14 C s       :     2.874685  s :     2.874685
      pz      :     1.115364  p :     2.981413
      px      :     0.935906
      py      :     0.930143
      dz2     :     0.019127  d :     0.123036
      dxz     :     0.029825
      dyz     :     0.010666
      dx2y2   :     0.028118
      dxy     :     0.035300

 15 C s       :     2.976252  s :     2.976252
      pz      :     1.162224  p :     3.369090
      px      :     1.149275
      py      :     1.057592
      dz2     :     0.012554  d :     0.060723
      dxz     :     0.017165
      dyz     :     0.005116
      dx2y2   :     0.008326
      dxy     :     0.017561

 16 O s       :     3.468483  s :     3.468483
      pz      :     1.694347  p :     4.735082
      px      :     1.666671
      py      :     1.374064
      dz2     :     0.073980  d :     0.492492
      dxz     :     0.050821
      dyz     :     0.104227
      dx2y2   :     0.132176
      dxy     :     0.131288

 17 C s       :     2.875321  s :     2.875321
      pz      :     1.071429  p :     2.983815
      px      :     1.035867
      py      :     0.876519
      dz2     :     0.031105  d :     0.122077
      dxz     :     0.013146
      dyz     :     0.017404
      dx2y2   :     0.023740
      dxy     :     0.036681

 18 C s       :     2.974592  s :     2.974592
      pz      :     1.144449  p :     3.363070
      px      :     1.072137
      py      :     1.146484
      dz2     :     0.019457  d :     0.060943
      dxz     :     0.009771
      dyz     :     0.004916
      dx2y2   :     0.012534
      dxy     :     0.014265

 19 H s       :     0.795847  s :     0.795847
      pz      :     0.008244  p :     0.043554
      px      :     0.009263
      py      :     0.026046

 20 H s       :     0.796771  s :     0.796771
      pz      :     0.008286  p :     0.044020
      px      :     0.027485
      py      :     0.008250

 21 H s       :     0.790446  s :     0.790446
      pz      :     0.021110  p :     0.044316
      px      :     0.009521
      py      :     0.013686

 22 H s       :     0.780152  s :     0.780152
      pz      :     0.021601  p :     0.039947
      px      :     0.005439
      py      :     0.012907

 23 H s       :     0.777399  s :     0.777399
      pz      :     0.007950  p :     0.042787
      px      :     0.005618
      py      :     0.029219

 24 H s       :     0.763551  s :     0.763551
      pz      :     0.008994  p :     0.044292
      px      :     0.027160
      py      :     0.008138

 25 H s       :     0.781552  s :     0.781552
      pz      :     0.009122  p :     0.039697
      px      :     0.006981
      py      :     0.023594

 26 H s       :     0.797382  s :     0.797382
      pz      :     0.009172  p :     0.043486
      px      :     0.026202
      py      :     0.008112

 27 H s       :     0.787499  s :     0.787499
      pz      :     0.012614  p :     0.045949
      px      :     0.008276
      py      :     0.025059

 28 H s       :     0.797464  s :     0.797464
      pz      :     0.020718  p :     0.044091
      px      :     0.014831
      py      :     0.008543

 29 H s       :     0.759786  s :     0.759786
      pz      :     0.019378  p :     0.048715
      px      :     0.021011
      py      :     0.008325

 30 H s       :     0.756113  s :     0.756113
      pz      :     0.007462  p :     0.049977
      px      :     0.024647
      py      :     0.017869

 31 H s       :     0.778073  s :     0.778073
      pz      :     0.022696  p :     0.042365
      px      :     0.012689
      py      :     0.006979

 32 H s       :     0.779995  s :     0.779995
      pz      :     0.021750  p :     0.039933
      px      :     0.011191
      py      :     0.006993

 33 H s       :     0.789210  s :     0.789210
      pz      :     0.023626  p :     0.044774
      px      :     0.012876
      py      :     0.008272

 34 H s       :     0.795827  s :     0.795827
      pz      :     0.008521  p :     0.044123
      px      :     0.018079
      py      :     0.017523

 35 H s       :     0.795538  s :     0.795538
      pz      :     0.019275  p :     0.043605
      px      :     0.016762
      py      :     0.007568

 36 H s       :     0.775541  s :     0.775541
      pz      :     0.029216  p :     0.042575
      px      :     0.007523
      py      :     0.005836

 37 H s       :     0.779630  s :     0.779630
      pz      :     0.009001  p :     0.039944
      px      :     0.016882
      py      :     0.014061

 38 H s       :     0.791113  s :     0.791113
      pz      :     0.009820  p :     0.044292
      px      :     0.016468
      py      :     0.018004

 39 H s       :     0.796001  s :     0.796001
      pz      :     0.009756  p :     0.044040
      px      :     0.010420
      py      :     0.023865

 40 H s       :     0.795730  s :     0.795730
      pz      :     0.027932  p :     0.043524
      px      :     0.007729
      py      :     0.007863


---------------------------------
LOEWDIN BOND ORDERS (THRESH 0.050000)
---------------------------------
B(  0-C ,  1-C ) :   1.0948 B(  0-C ,  2-O ) :   0.1551 B(  0-C , 19-H ) :   0.9225 
B(  0-C , 20-H ) :   0.9164 B(  0-C , 21-H ) :   0.9141 B(  1-C ,  2-O ) :   1.2897 
B(  1-C ,  3-P ) :   0.0993 B(  1-C ,  4-S ) :   0.0534 B(  1-C , 20-H ) :   0.0512 
B(  1-C , 22-H ) :   0.8295 B(  1-C , 23-H ) :   0.8272 B(  2-O ,  3-P ) :   1.5707 
B(  2-O ,  4-S ) :   0.1879 B(  2-O ,  5-O ) :   0.2286 B(  2-O ,  8-S ) :   0.1623 
B(  2-O , 22-H ) :   0.0991 B(  2-O , 23-H ) :   0.0958 B(  3-P ,  4-S ) :   2.0128 
B(  3-P ,  5-O ) :   1.5589 B(  3-P ,  6-C ) :   0.0860 B(  3-P ,  8-S ) :   1.2254 
B(  3-P ,  9-C ) :   0.0900 B(  4-S ,  5-O ) :   0.1745 B(  4-S ,  8-S ) :   0.1503 
B(  4-S ,  9-C ) :   0.0617 B(  5-O ,  6-C ) :   1.3050 B(  5-O ,  7-C ) :   0.1532 
B(  5-O ,  8-S ) :   0.1558 B(  5-O , 24-H ) :   0.0952 B(  5-O , 25-H ) :   0.1032 
B(  6-C ,  7-C ) :   1.0948 B(  6-C , 24-H ) :   0.8115 B(  6-C , 25-H ) :   0.8258 
B(  6-C , 28-H ) :   0.0519 B(  7-C , 26-H ) :   0.9212 B(  7-C , 27-H ) :   0.9126 
B(  7-C , 28-H ) :   0.9152 B(  8-S ,  9-C ) :   1.2965 B(  8-S , 10-S ) :   0.2133 
B(  8-S , 29-H ) :   0.0560 B(  8-S , 30-H ) :   0.0589 B(  9-C , 10-S ) :   1.2949 
B(  9-C , 11-P ) :   0.0938 B(  9-C , 29-H ) :   0.8384 B(  9-C , 30-H ) :   0.8332 
B( 10-S , 11-P ) :   1.2349 B( 10-S , 12-S ) :   0.1468 B( 10-S , 13-O ) :   0.1414 
B( 10-S , 16-O ) :   0.1705 B( 10-S , 29-H ) :   0.0607 B( 10-S , 30-H ) :   0.0566 
B( 11-P , 12-S ) :   2.0105 B( 11-P , 13-O ) :   1.5702 B( 11-P , 14-C ) :   0.0943 
B( 11-P , 16-O ) :   1.5546 B( 11-P , 17-C ) :   0.0959 B( 12-S , 13-O ) :   0.1842 
B( 12-S , 16-O ) :   0.1848 B( 13-O , 14-C ) :   1.2995 B( 13-O , 15-C ) :   0.1550 
B( 13-O , 16-O ) :   0.2162 B( 13-O , 31-H ) :   0.0971 B( 13-O , 32-H ) :   0.1002 
B( 14-C , 15-C ) :   1.0947 B( 14-C , 31-H ) :   0.8277 B( 14-C , 32-H ) :   0.8284 
B( 14-C , 34-H ) :   0.0514 B( 15-C , 33-H ) :   0.9144 B( 15-C , 34-H ) :   0.9148 
B( 15-C , 35-H ) :   0.9208 B( 16-O , 17-C ) :   1.2908 B( 16-O , 18-C ) :   0.1550 
B( 16-O , 36-H ) :   0.0965 B( 16-O , 37-H ) :   0.1001 B( 17-C , 18-C ) :   1.0946 
B( 17-C , 36-H ) :   0.8266 B( 17-C , 37-H ) :   0.8280 B( 17-C , 39-H ) :   0.0508 
B( 18-C , 38-H ) :   0.9144 B( 18-C , 39-H ) :   0.9159 B( 18-C , 40-H ) :   0.9219 


------------------------------------------
LOEWDIN REDUCED ORBITAL POPULATIONS PER MO
-------------------------------------------
THRESHOLD FOR PRINTING IS 0.1%%
                      0         1         2         3         4         5   
                 -88.57751 -88.57285 -88.52640 -88.52162 -76.91783 -76.91335
                   2.00000   2.00000   2.00000   2.00000   2.00000   2.00000
                  --------  --------  --------  --------  --------  --------
 3 P  s               0.0       0.0       0.0       0.0       0.0     100.0
 4 S  s               0.0       0.0       0.0     100.0       0.0       0.0
 8 S  s               0.0     100.0       0.0       0.0       0.0       0.0
10 S  s             100.0       0.0       0.0       0.0       0.0       0.0
11 P  s               0.0       0.0       0.0       0.0     100.0       0.0
12 S  s               0.0       0.0     100.0       0.0       0.0       0.0

                      6         7         8         9        10        11   
                 -18.99821 -18.99311 -18.98717 -18.98681 -10.10359 -10.10315
                   2.00000   2.00000   2.00000   2.00000   2.00000   2.00000
                  --------  --------  --------  --------  --------  --------
 2 O  s               0.0       0.0       0.0      99.9       0.0       0.0
 5 O  s               0.0       0.0      99.9       0.0       0.0       0.0
 9 C  s               0.0       0.0       0.0       0.0      99.6       0.0
13 O  s              99.9       0.0       0.0       0.0       0.0       0.0
13 O  dxy             0.0       0.0       0.0       0.0       0.0       0.2
14 C  s               0.0       0.0       0.0       0.0       0.0      99.4
16 O  s               0.0      99.9       0.0       0.0       0.0       0.0

                     12        13        14        15        16        17   
                 -10.09972 -10.09592 -10.09311 -10.03189 -10.03161 -10.02669
                   2.00000   2.00000   2.00000   2.00000   2.00000   2.00000
                  --------  --------  --------  --------  --------  --------
 0 C  s               0.0       0.0       0.0       0.0       0.0      99.7
 1 C  s               0.0      99.4       0.0       0.0       0.0       0.0
 2 O  px              0.0       0.1       0.0       0.0       0.0       0.0
 2 O  dx2y2           0.0       0.2       0.0       0.0       0.0       0.0
 5 O  dxz             0.0       0.0       0.2       0.0       0.0       0.0
 6 C  s               0.0       0.0      99.4       0.0       0.0       0.0
15 C  s               0.0       0.0       0.0      99.7       0.0       0.0
17 C  s              99.4       0.0       0.0       0.0       0.0       0.0
18 C  s               0.0       0.0       0.0       0.0      99.7       0.0

[...]
36 H  py              0.1       0.0       0.3       0.0       0.0       0.0
37 H  s               0.1       0.0       0.4       0.0       0.0       0.0
37 H  pz              0.1       0.0       0.3       0.0       0.0       0.0
37 H  px              0.2       0.0       0.8       0.0       0.0       0.0
39 H  py              0.0       0.0       0.1       0.0       0.0       0.0

                    522       523       524       525       526       527   
                  18.87898  18.88531  19.10545  19.23113  21.95265  21.96741
                   0.00000   0.00000   0.00000   0.00000   0.00000   0.00000
                  --------  --------  --------  --------  --------  --------
 0 C  s               0.0       0.0       0.0       0.0       3.1      92.5
 3 P  s               0.0       0.2       0.1       0.1       0.0       0.0
 3 P  py              0.0       0.2       0.0       0.0       0.0       0.0
 4 S  s               0.0      96.6       0.0       2.3       0.0       0.0
 4 S  py              0.0       0.1       0.0       0.0       0.0       0.0
 6 C  s               0.0       0.0       0.0       0.0       0.3       0.3
 7 C  s               0.0       0.0       0.0       0.0       1.2       1.2
 8 S  s               2.9       0.9      46.1      49.0       0.0       0.0
 9 C  s               0.0       0.0       0.0       1.0       1.5       1.3
10 S  s               0.3       1.4      52.5      44.6       0.0       0.0
11 P  s               0.2       0.0       0.0       0.1       0.0       0.0
11 P  pz              0.2       0.0       0.0       0.0       0.0       0.0
12 S  s              95.7       0.1       0.6       2.5       0.0       0.0
12 S  pz              0.1       0.0       0.0       0.0       0.0       0.0
14 C  s               0.0       0.0       0.0       0.0       0.9       0.0
15 C  s               0.0       0.0       0.0       0.0      31.7       1.3
17 C  s               0.0       0.0       0.0       0.0       0.0       0.2
18 C  s               0.0       0.0       0.0       0.0      61.1       2.9

                    528       529       530       531       532       533   
                  21.99144  22.01006  22.04223  22.05223  22.06335  22.08466
                   0.00000   0.00000   0.00000   0.00000   0.00000   0.00000
                  --------  --------  --------  --------  --------  --------
 0 C  s               0.0       2.9       0.3       0.5       0.2       0.1
 1 C  s               0.0       0.2       0.8      19.5      77.8       1.2
 6 C  s               0.3       0.0       4.6       1.2       0.1       0.7
 7 C  s               0.3      83.6       8.6       1.8       1.8       0.5
 9 C  s               0.2       7.9      13.5      44.3       9.9      16.0
14 C  s               0.3       1.3      40.9      31.8       7.3      15.9
15 C  s              65.1       0.0       0.4       0.1       0.1       0.7
17 C  s               0.2       1.9      30.3       0.0       2.4      64.2
18 C  s              33.3       1.8       0.2       0.1       0.0       0.2

                    534       535       536       537       538   
                  22.14173  43.81507  43.83518  43.83980  43.87681
                   0.00000   0.00000   0.00000   0.00000   0.00000
                  --------  --------  --------  --------  --------
 0 C  s               0.1       0.0       0.0       0.0       0.0
 2 O  s               0.0       0.3       2.8      93.1       3.7
 5 O  s               0.0       0.0      96.9       3.0       0.0
 6 C  s              92.0       0.0       0.0       0.0       0.0
 7 C  s               0.5       0.0       0.0       0.0       0.0
 9 C  s               4.8       0.0       0.0       0.0       0.0
13 O  s               0.0      91.3       0.0       0.0       8.6
14 C  s               1.3       0.0       0.0       0.0       0.0
15 C  s               0.3       0.0       0.0       0.0       0.0
16 O  s               0.0       8.3       0.2       3.8      87.6
17 C  s               0.3       0.0       0.0       0.0       0.0


                      *****************************
                      * MAYER POPULATION ANALYSIS *
                      *****************************

  NA   - Mulliken gross atomic population
  ZA   - Total nuclear charge
  QA   - Mulliken gross atomic charge
  VA   - Mayer's total valence
  BVA  - Mayer's bonded valence
  FA   - Mayer's free valence

  ATOM       NA         ZA         QA         VA         BVA        FA
  0 C      6.4391     6.0000    -0.4391     3.7843     3.7843     0.0000
  1 C      6.1565     6.0000    -0.1565     3.6879     3.6879    -0.0000
  2 O      8.3013     8.0000    -0.3013     1.8849     1.8849    -0.0000
  3 P     14.3397    15.0000     0.6603     5.1942     5.1942     0.0000
  4 S     16.4744    16.0000    -0.4744     2.0294     2.0294     0.0000
  5 O      8.2442     8.0000    -0.2442     1.8119     1.8119    -0.0000
  6 C      6.1731     6.0000    -0.1731     3.6613     3.6613    -0.0000
  7 C      6.4248     6.0000    -0.4248     3.7685     3.7685    -0.0000
  8 S     16.1219    16.0000    -0.1219     2.2014     2.2014    -0.0000
  9 C      6.2410     6.0000    -0.2410     3.7016     3.7016    -0.0000
 10 S     16.1261    16.0000    -0.1261     2.2042     2.2042    -0.0000
 11 P     14.3244    15.0000     0.6756     5.1770     5.1770    -0.0000
 12 S     16.4771    16.0000    -0.4771     2.0361     2.0361    -0.0000
 13 O      8.3049     8.0000    -0.3049     1.8192     1.8192     0.0000
 14 C      6.1512     6.0000    -0.1512     3.7003     3.7003     0.0000
 15 C      6.4511     6.0000    -0.4511     3.7613     3.7613     0.0000
 16 O      8.2751     8.0000    -0.2751     1.8258     1.8258    -0.0000
 17 C      6.1517     6.0000    -0.1517     3.6589     3.6589    -0.0000
 18 C      6.4397     6.0000    -0.4397     3.7871     3.7871     0.0000
 19 H      0.8449     1.0000     0.1551     0.9613     0.9613     0.0000
 20 H      0.8531     1.0000     0.1469     0.9639     0.9639    -0.0000
 21 H      0.8328     1.0000     0.1672     0.9614     0.9614     0.0000
 22 H      0.8504     1.0000     0.1496     0.9509     0.9509    -0.0000
 23 H      0.8272     1.0000     0.1728     0.9529     0.9529    -0.0000
 24 H      0.8208     1.0000     0.1792     0.9573     0.9573    -0.0000
 25 H      0.8541     1.0000     0.1459     0.9504     0.9504    -0.0000
 26 H      0.8512     1.0000     0.1488     0.9632     0.9632    -0.0000
 27 H      0.8249     1.0000     0.1751     0.9597     0.9597     0.0000
 28 H      0.8569     1.0000     0.1431     0.9644     0.9644    -0.0000
 29 H      0.7835     1.0000     0.2165     0.9471     0.9471     0.0000
 30 H      0.7845     1.0000     0.2155     0.9501     0.9501    -0.0000
 31 H      0.8286     1.0000     0.1714     0.9526     0.9526     0.0000
 32 H      0.8508     1.0000     0.1492     0.9493     0.9493     0.0000
 33 H      0.8223     1.0000     0.1777     0.9570     0.9570     0.0000
 34 H      0.8508     1.0000     0.1492     0.9640     0.9640    -0.0000
 35 H      0.8431     1.0000     0.1569     0.9596     0.9596    -0.0000
 36 H      0.8253     1.0000     0.1747     0.9552     0.9552     0.0000
 37 H      0.8478     1.0000     0.1522     0.9510     0.9510     0.0000
 38 H      0.8332     1.0000     0.1668     0.9607     0.9607     0.0000
 39 H      0.8519     1.0000     0.1481     0.9637     0.9637     0.0000
 40 H      0.8445     1.0000     0.1555     0.9614     0.9614     0.0000

  Mayer bond orders larger than 0.100000
B(  0-C ,  1-C ) :   0.9266 B(  0-C , 19-H ) :   0.9704 B(  0-C , 20-H ) :   0.9628 
B(  0-C , 21-H ) :   0.9603 B(  1-C ,  2-O ) :   0.8063 B(  1-C , 22-H ) :   0.9612 
B(  1-C , 23-H ) :   0.9653 B(  2-O ,  3-P ) :   1.1810 B(  3-P ,  4-S ) :   1.7340 
B(  3-P ,  5-O ) :   1.0849 B(  3-P ,  8-S ) :   1.0746 B(  5-O ,  6-C ) :   0.7980 
B(  6-C ,  7-C ) :   0.9234 B(  6-C , 24-H ) :   0.9514 B(  6-C , 25-H ) :   0.9670 
B(  7-C , 26-H ) :   0.9700 B(  7-C , 27-H ) :   0.9534 B(  7-C , 28-H ) :   0.9638 
B(  8-S ,  9-C ) :   0.9158 B(  9-C , 10-S ) :   0.8976 B(  9-C , 29-H ) :   0.9075 
B(  9-C , 30-H ) :   0.9009 B( 10-S , 11-P ) :   1.0914 B( 11-P , 12-S ) :   1.7550 
B( 11-P , 13-O ) :   1.0707 B( 11-P , 16-O ) :   1.1336 B( 13-O , 14-C ) :   0.8125 
B( 14-C , 15-C ) :   0.9225 B( 14-C , 31-H ) :   0.9665 B( 14-C , 32-H ) :   0.9578 
B( 15-C , 33-H ) :   0.9618 B( 15-C , 34-H ) :   0.9580 B( 15-C , 35-H ) :   0.9684 
B( 16-O , 17-C ) :   0.7946 B( 17-C , 18-C ) :   0.9233 B( 17-C , 36-H ) :   0.9637 
B( 17-C , 37-H ) :   0.9612 B( 18-C , 38-H ) :   0.9599 B( 18-C , 39-H ) :   0.9619 
B( 18-C , 40-H ) :   0.9716 

-------
TIMINGS
-------

Total SCF time: 0 days 0 hours 1 min 14 sec 

Total time                  ....      74.027 sec
Sum of individual times     ....      73.430 sec  ( 99.2%)

SCF preparation             ....       0.384 sec  (  0.5%)
Fock matrix formation       ....      69.919 sec  ( 94.5%)
  Startup                   ....       0.199 sec  (  0.3% of F)
  Split-RI-J                ....      23.736 sec  ( 33.9% of F)
  XC integration            ....      44.460 sec  ( 63.6% of F)
    XC Preparation          ....       0.000 sec  (  0.0% of XC)
    Basis function eval.    ....       6.959 sec  ( 15.7% of XC)
    Density eval.           ....      16.374 sec  ( 36.8% of XC)
    XC-Functional eval.     ....       3.152 sec  (  7.1% of XC)
    XC-Potential eval.      ....      16.699 sec  ( 37.6% of XC)
Diagonalization             ....       0.000 sec  (  0.0%)
Density matrix formation    ....       0.800 sec  (  1.1%)
Total Energy calculation    ....       0.049 sec  (  0.1%)
Population analysis         ....       0.429 sec  (  0.6%)
Orbital Transformation      ....       0.251 sec  (  0.3%)
Orbital Orthonormalization  ....       0.000 sec  (  0.0%)
DIIS solution               ....       1.385 sec  (  1.9%)
  MO trafo                  ....       0.000 sec  (  0.0 % of DIIS)
  Orb grad                  ....       0.000 sec  (  0.0 % of DIIS)
  Energy W gradient         ....       0.000 sec  (  0.0 % of DIIS)
  DIIS error                ....       0.109 sec  (  7.9 % of DIIS)
  DIIS work                 ....       1.128 sec  ( 81.5 % of DIIS)
  Form Q                    ....       0.000 sec  (  0.0 % of DIIS)
  Form QpQm                 ....       0.000 sec  (  0.0 % of DIIS)
  Exp/Cayley                ....       0.000 sec  (  0.0 % of DIIS)
  Orb update                ....       0.000 sec  (  0.0 % of DIIS)
  Wake-sleep                ....       0.024 sec  (  1.8 % of DIIS)
SOSCF solution              ....       0.214 sec  (  0.3%)
  MO trafo                  ....       0.159 sec  ( 74.3 % of SOSCF)
  Orb grad                  ....       0.001 sec  (  0.5 % of SOSCF)
  Rot update                ....       0.000 sec  (  0.1 % of SOSCF)
  Step                      ....       0.054 sec  ( 25.1 % of SOSCF)
Finished LeanSCF after  74.1 sec

Maximum memory used throughout the entire LEANSCF-calculation: 72.5 MB


-------------------------------------------------------------------------------
                          DFT DISPERSION CORRECTION                            
                                                                               
                                DFTD4 V3.4.0                                   
-------------------------------------------------------------------------------
The R2SCAN3C composite method is recognized
Using three-body term ABC
Active option DFTDOPT                   ...         5   

-------------------------   ----------------
Dispersion correction           -0.021617815
-------------------------   ----------------

------------------   -----------------
gCP correction             0.046628657
------------------   -----------------

-------------------------   --------------------
FINAL SINGLE POINT ENERGY     -2932.463694838892
-------------------------   --------------------


------------------------------------------------------------------------------
                              ORCA PROPERTY CALCULATIONS
------------------------------------------------------------------------------

GBWName                                 ... sp_gas.gbw
Number of atoms                         ...     41
Number of basis functions               ...    539
Max core memory                         ...   1024 MB

Electric properties:
Dipole moment                           ... YES
Quadrupole moment                       ...  NO
Static polarizability (Dipole/Dipole)   ...  NO
Static polarizability (Dipole/Quad.)    ...  NO
Static polarizability (Quad./Quad.)     ...  NO
Static polarizability (Velocity)        ...  NO

Atomic electric properties:
Dipole moment                           ...  NO
Quadrupole moment                       ...  NO
Static polarizability                   ...  NO

Choice of electric origin               ... Center of mass
Position of electric origin             ...    -0.000002     0.000003     0.000004

General magnetic properties:
Magnetizability                         ...  NO

EPR properties:
g-Tensor (aka g-matrix)                 ...  NO
Zero-Field splitting spin-orbit         ...  NO
Zero-field splitting spin-spin          ...  NO
Hyperfine couplings                     ...  NO (   0 nuclei)
Quadrupole couplings                    ...  NO (   0 nuclei)
Contact density                         ...  NO (   0 nuclei)

NMR properties:
Chemical shifts                         ...  NO (   0 nuclei)
Spin-rotation constants                 ...  NO (   0 nuclei)
Spin-spin couplings                     ...  NO (   0 nuclei,    0 pairs)

Choice of magnetic origin               ... GIAO
Position of magnetic origin             ...     0.000000     0.000000     0.000000

Properties with geometric perturbations:
SCF Hessian                             ...  NO
IR spectrum                             ...  NO
VCD spectrum                            ...  NO
X-ray spectroscopy properties:
SCF XES/XAS/RIXS spectra                ...  NO


-------------
DIPOLE MOMENT
-------------

Method             : SCF
Type of density    : Electron Density
Multiplicity       :   1
Irrep              :   0
Energy             : -2932.4887056810498507 Eh
Relativity type    : 
Basis              : AO
                                X                 Y                 Z
Electronic contribution:      1.735852992       5.820019369     -13.001042820
Nuclear contribution   :     -2.157648554      -6.595175746      13.960619630
                        -----------------------------------------
Total Dipole Moment    :     -0.421795562      -0.775156377       0.959576810
                        -----------------------------------------
Magnitude (a.u.)       :      1.303674253
Magnitude (Debye)      :      3.313676610



--------------------
Rotational spectrum 
--------------------
 
Rotational constants in cm-1:             0.014284             0.004489             0.004320 
Rotational constants in MHz :           428.208763           134.586760           129.511651 

Dipole components along the rotational axes: 
x,y,z [a.u.] :     0.398849    -0.593229     1.090214 
x,y,z [Debye]:     1.013792    -1.507867     2.771103 

 

Dipole moment calculation done in   0.1 sec 

Maximum memory used throughout the entire PROP-calculation: 51.0 MB

--------------------------------
SUGGESTED CITATIONS FOR THIS RUN
--------------------------------

Below you find a list of papers that are relevant to this ORCA run
We neither can nor want to force you to cite these papers, but we appreciate if you do
You receive ORCA, which is the product of decades of hard work by many enthusiastic individuals, for free
The only thing we kindly ask in return is that you cite our papers,
We deeply appreciate it, if you show your appreciation for ORCA by not just citing the generic ORCA reference.

Please note that relegating all ORCA citations to the supporting information does *not* help us.
SI sections are not indexed - citations you put there will not count into any citation statistics
But we need these citations in order to attract the funding resources that allow us to do what we are doing

Therefore, if you are a happy ORCA user, please consider citing a few of the papers listed below in the main body of your paper

In addition to the list printed below, the program has created the file sp_gas.bibtex that contains the list in bibtex format
You can import this file easily into all common literature databanks and citation aid programs


List of essential papers. We consider these as the minimum necessary citations

  1. Neese,F.
     Software update: the ORCA program system, version 5.0
     WIRES Comput. Molec. Sci., 2022 12(1)e1606
     doi.org/10.1002/wcms.1606
  2. Grimme,S.; Hansen,A.; Ehlert,S.; Mewes,J.
     r2SCAN-3c: A 'Swiss army knife' composite electronic-structure method
     J. Chem. Phys., 2021 154 064103
     doi.org/10.1063/5.0040021

List of papers to cite with high priority. The work reported in these papers was absolutely
necessary for this run to complete.
Our perspective: the developers of density functionals and basis sets usually get cited in chemistry papers
Good! But without the algorithms to do something with them, the functionals or basis sets would not do anything.
Hence, in our opinion, the algorithm design and method developments papers are equally worthy of getting cited

  1. Neese,F.
     An improvement of the resolution of the identity approximation for the formation of the Coulomb matrix
     J. Comp. Chem., 2003 24(14)1740-1747
     doi.org/10.1002/jcc.10318
  2. Neese,F.
     The SHARK Integral Generation and Digestion System
     J. Comp. Chem., 2022  1-16
     doi.org/10.1002/jcc.26942
  3. Lehtola,S.; Steigemann,C.; Oliveira,M.; Marques,M.
     Recent developments in Libxc - A comprehensive library of functionals for density functional theory
     Software X, 2018 7 
     doi.org/10.1016/j.softx.2017.11.002
  4. Caldeweyher,E.; Bannwarth,C.; Grimme,S.
     Extension of the D3 dispersion coefficient model
     J. Chem. Phys., 2017 147 034112-XXXX
     doi.org/10.1063/1.4993215
  5. Caldeweyher,E.; Ehlert,S.; Hansen,A.; Neugebauer,H.; Spicher,S.; Bannwarth,C.; Grimme,S.
     A generally applicable atomic-charge dependent London dispersion correction
     J. Chem. Phys., 2019 150 154122-XXXX
     doi.org/10.1063/1.5090222
  6. Caldeweyher,E.; Mewes,J.; Ehlert,S.; Grimme,S.
     Extension and evaluation of the D4 London-dispersion model for periodic systems
     Phys. Chem. Chem. Phys., 2020 22(16)8499-8512
     doi.org/10.1039/D0CP00502A

List of suggested additional citations. These are papers that are important in the 'surrounding' of 
of this run, or papers that preceded the highly important papers. If you like your results we are grateful for a citation.

  1. Neese,F.
     The ORCA program system
     WIRES Comput. Molec. Sci., 2012 2(1)73-78
     doi.org/10.1002/wcms.81
  2. Neese,F.
     Software update: the ORCA program system, version 4.0
     WIRES Comput. Molec. Sci., 2018 8(1)1-6
     doi.org/10.1002/wcms.1327
  3. Neese,F.; Wennmohs,F.; Becker,U.; Riplinger,C.
     The ORCA quantum chemistry program package
     J. Chem. Phys., 2020 152 Art. No. L224108
     doi.org/10.1063/5.0004608

List of optional additional citations

  1. Neese,F.
     Approximate second-order SCF convergence for spin unrestricted wavefunctions
     Chem. Phys. Lett., 2000 325(1-3)93-98
     doi.org/10.1016/s0009-2614(00)00662-x

Timings for individual modules:

Sum of individual times          ...       78.331 sec (=   1.306 min)
Startup calculation              ...        3.037 sec (=   0.051 min)   3.9 %
SCF iterations                   ...       75.025 sec (=   1.250 min)  95.8 %
Property calculations            ...        0.268 sec (=   0.004 min)   0.3 %
                             ****ORCA TERMINATED NORMALLY****
TOTAL RUN TIME: 0 days 0 hours 1 minutes 19 seconds 116 msec
