      -----------------------------------------------------------      
     |                   =====================                   |     
     |                           x T B                           |     
     |                   =====================                   |     
     |                         S. Grimme                         |     
     |          Mulliken Center for Theoretical Chemistry        |     
     |                    University of Bonn                     |     
      -----------------------------------------------------------      

   * xtb version 6.7.1 (edcfbbe) compiled by 'albert@albert-system' on 2024-07-22

   xtb is free software: you can redistribute it and/or modify it under
   the terms of the GNU Lesser General Public License as published by
   the Free Software Foundation, either version 3 of the License, or
   (at your option) any later version.
   
   xtb is distributed in the hope that it will be useful,
   but WITHOUT ANY WARRANTY; without even the implied warranty of
   MERCHANTABILITY or FITNESS FOR A PARTICULAR PURPOSE.  See the
   GNU Lesser General Public License for more details.
   
   Cite this work as:
   * C. Bannwarth, E. Caldeweyher, S. Ehlert, A. Hansen, P. Pracht,
     J. Seibert, S. Spicher, S. Grimme, WIREs Comput. Mol. Sci., 2020, 11,
     e01493. DOI: 10.1002/wcms.1493
   
   for GFN2-xTB:
   * C. Bannwarth, S. Ehlert and S. Grimme., J. Chem. Theory Comput., 2019,
     15, 1652-1671. DOI: 10.1021/acs.jctc.8b01176
   for GFN1-xTB:
   * S. Grimme, C. Bannwarth, P. Shushkov, J. Chem. Theory Comput., 2017,
     13, 1989-2009. DOI: 10.1021/acs.jctc.7b00118
   for GFN0-xTB:
   * P. Pracht, E. Caldeweyher, S. Ehlert, S. Grimme, ChemRxiv, 2019, preprint.
     DOI: 10.26434/chemrxiv.8326202.v1
   for GFN-FF:
   * S. Spicher and S. Grimme, Angew. Chem. Int. Ed., 2020, 59, 15665-15673.
     DOI: 10.1002/anie.202004239
   
   for ALPB and GBSA implicit solvation:
   * S. Ehlert, M. Stahn, S. Spicher, S. Grimme, J. Chem. Theory Comput.,
     2021, 17, 4250-4261. DOI: 10.1021/acs.jctc.1c00471
   
   for ddCOSMO and CPCM-X implicit solvation:
   * M. Stahn, S. Ehlert, S. Grimme, J. Phys. Chem. A,
     2023, XX, XXXX-XXXX. DOI: 10.1021/acs.jpca.3c04382
   
   for DFT-D4:
   * E. Caldeweyher, C. Bannwarth and S. Grimme, J. Chem. Phys., 2017,
     147, 034112. DOI: 10.1063/1.4993215
   * E. Caldeweyher, S. Ehlert, A. Hansen, H. Neugebauer, S. Spicher,
     C. Bannwarth and S. Grimme, J. Chem. Phys., 2019, 150, 154122.
     DOI: 10.1063/1.5090222
   * E. Caldeweyher, J.-M. Mewes, S. Ehlert and S. Grimme, Phys. Chem. Chem. Phys.
     2020, 22, 8499-8512. DOI: 10.1039/D0CP00502A
   
   for sTDA-xTB:
   * S. Grimme and C. Bannwarth, J. Chem. Phys., 2016, 145, 054103.
     DOI: 10.1063/1.4959605
   
   in the mass-spec context:
   * V. Asgeirsson, C. Bauer and S. Grimme, Chem. Sci., 2017, 8, 4879.
     DOI: 10.1039/c7sc00601b
   * J. Koopman and S. Grimme, ACS Omega 2019, 4, 12, 15120-15133.
     DOI: 10.1021/acsomega.9b02011
   
   for metadynamics refer to:
   * S. Grimme, J. Chem. Theory Comput., 2019, 155, 2847-2862
     DOI: 10.1021/acs.jctc.9b00143
   
   for SPH calculations refer to:
   * S. Spicher and S. Grimme, J. Chem. Theory Comput., 2021, 17, 1701-1714
     DOI: 10.1021/acs.jctc.0c01306
   
   for ONIOM refer to:
   * C. Plett, A. Katbashev, S. Ehlert, S. Grimme, M. Bursch,
     Phys. Chem. Chem. Phys., 2023, 25, 17860-17868. DOI: 10.1039/D3CP02178E
   
   for DIPRO refer to:
   * J. Kohn, N. Gildemeister, S. Grimme, D. Fazzi, A. Hansen,
     J. Chem. Phys., 2023, just accepted.
   
   for PTB refer to:
   * S. Grimme, M. Mueller, A. Hansen, J. Chem. Phys., 2023, 158, 124111.
     DOI: 10.1063/5.0137838
   
   with help from (in alphabetical order)
   P. Atkinson, C. Bannwarth, F. Bohle, G. Brandenburg, E. Caldeweyher
   M. Checinski, S. Dohm, S. Ehlert, S. Ehrlich, I. Gerasimov, C. Hölzer
   A. Katbashev, J. Kohn, J. Koopman, C. Lavigne, S. Lehtola, F. März, M. Müller,
   F. Musil, H. Neugebauer, J. Pisarek, C. Plett, P. Pracht, F. Pultar,
   J. Seibert, P. Shushkov, S. Spicher, M. Stahn, M. Steiner, T. Strunk,
   J. Stückrath, T. Rose, and J. Unsleber
   
 * started run on 2025/04/10 at 14:47:27.608     
   ID    Z sym.   atoms
    1    6 C      1, 2, 7, 8, 10, 15, 16, 18, 19
    2    8 O      3, 6, 14, 17
    3   15 P      4, 12
    4   16 S      5, 9, 11, 13
    5    1 H      20-41

           -------------------------------------------------
          |                Calculation Setup                |
           -------------------------------------------------

          program call               : /srv/scratch/z5358697/.xtb/bin/xtb xtb_opt.coord --opt normal --orca -I xtb_opt-xcontrol-inp
          hostname                   : k163
          coordinate file            : xtb_opt.coord
          omp threads                :                    24

           -------------------------------------------------
          |                   Orca driver                   |
           -------------------------------------------------
orca executable           : /apps/z_install_tree/linux-rocky8-ivybridge/gcc-12.2.0/orca-6.0.0-srtngmq3qlimg2qxbl6avaaiffipurdx/bin/orca
orca input file           : xtb_opt.inp
orca input line           : 
orca parallel             : true
orca number of threads    : 24
                         * ORCA takes the control...
  ------------------------------------------------------------------------

                                 *****************
                                 * O   R   C   A *
                                 *****************

                                            #,                                       
                                            ###                                      
                                            ####                                     
                                            #####                                    
                                            ######                                   
                                           ########,                                 
                                     ,,################,,,,,                         
                               ,,#################################,,                 
                          ,,##########################################,,             
                       ,#########################################, ''#####,          
                    ,#############################################,,   '####,        
                  ,##################################################,,,,####,       
                ,###########''''           ''''###############################       
              ,#####''   ,,,,##########,,,,          '''####'''          '####       
            ,##' ,,,,###########################,,,                        '##       
           ' ,,###''''                  '''############,,,                           
         ,,##''                                '''############,,,,        ,,,,,,###''
      ,#''                                            '''#######################'''  
     '                                                          ''''####''''         
             ,#######,   #######,   ,#######,      ##                                
            ,#'     '#,  ##    ##  ,#'     '#,    #''#        ,####,   ,####,        
            ##       ##  ##   ,#'  ##            #'  '#       #'       #'  '#        
            ##       ##  #######   ##           ,######,      #####,   #    #        
            '#,     ,#'  ##    ##  '#,     ,#' ,#      #,     #,   #   #,  ,#        
             '#######'   ##     ##  '#######'  #'      '#     '####' # '####'        



                #########################################################
                #                        -***-                          #
                #          Department of theory and spectroscopy        #
                #                                                       #
                #                      Frank Neese                      #
                #                                                       #
                #     Directorship, Architecture, Infrastructure        #
                #                    SHARK, DRIVERS                     #
                #        Core code/Algorithms in most modules           #
                #                                                       #
                #        Max Planck Institute fuer Kohlenforschung      #
                #                Kaiser Wilhelm Platz 1                 #
                #                 D-45470 Muelheim/Ruhr                 #
                #                      Germany                          #
                #                                                       #
                #                  All rights reserved                  #
                #                        -***-                          #
                #########################################################


                         Program Version 6.0.0  -   RELEASE  -


 With contributions from (in alphabetic order):
   Daniel Aravena         : Magnetic Suceptibility
   Michael Atanasov       : Ab Initio Ligand Field Theory (pilot matlab implementation)
   Alexander A. Auer      : GIAO ZORA, VPT2 properties, NMR spectrum
   Ute Becker             : All parallelization in ORCA, NUMFREQ, NUMCALC
   Giovanni Bistoni       : ED, misc. LED, open-shell LED, HFLD
   Martin Brehm           : Molecular dynamics
   Dmytro Bykov           : pre 5.0 version of the SCF Hessian
   Marcos Casanova-Páez   : Triplet and SCS-CIS(D). UHF-(DLPNO)-IP/EA/STEOM-CCSD. UHF-CVS-IP/STEOM-CCSD
   Vijay G. Chilkuri      : MRCI spin determinant printing, contributions to CSF-ICE
   Pauline Colinet        : FMM embedding
   Dipayan Datta          : RHF DLPNO-CCSD density
   Achintya Kumar Dutta   : EOM-CC, STEOM-CC
   Nicolas Foglia         : Exact transition moments, OPA infrastructure, MCD improvements
   Dmitry Ganyushin       : Spin-Orbit,Spin-Spin,Magnetic field MRCI
   Miquel Garcia          : C-PCM and meta-GGA Hessian, CCSD/C-PCM, Gaussian charge scheme
   Tiago L. C. Gouveia    : GS-ROHF, GS-ROCIS
   Yang Guo               : DLPNO-NEVPT2, F12-NEVPT2, CIM, IAO-localization
   Andreas Hansen         : Spin unrestricted coupled pair/coupled cluster methods
   Ingolf Harden          : AUTO-CI MPn and infrastructure 
   Benjamin Helmich-Paris : MC-RPA, TRAH-(SCF,CASSCF), AVAS, COSX integrals, SCF dyn. polar.
   Lee Huntington         : MR-EOM, pCC
   Robert Izsak           : Overlap fitted RIJCOSX, COSX-SCS-MP3, EOM
   Riya Kayal             : Wick's Theorem for AUTO-CI, AUTO-CI UHF-CCSDT
   Emily Kempfer          : AUTO-CI, RHF CISDT and CCSDT
   Christian Kollmar      : KDIIS, OOCD, Brueckner-CCSD(T), CCSD density, CASPT2, CASPT2-K, improved NEVPT2
   Axel Koslowski         : Symmetry handling
   Simone Kossmann        : Meta GGA functionals, TD-DFT gradient, OOMP2, (MP2 Hessian; deprecated post 5.0)
   Lucas Lang             : DCDCAS
   Marvin Lechner         : AUTO-CI (C++ implementation), FIC-MRCC
   Spencer Leger          : CASSCF response
   Dagmar Lenk            : GEPOL surface, SMD, ORCA-2-JSON
   Dimitrios Liakos       : Extrapolation schemes; Compound Job, initial MDCI parallelization
   Dimitrios Manganas     : Further ROCIS development; embedding schemes. LFT, Crystal Embedding
   Dimitrios Pantazis     : SARC Basis sets
   Anastasios Papadopoulos: AUTO-CI, single reference methods and gradients
   Taras Petrenko         : pre 6.0 DFT Hessian and TD-DFT gradient, (ASA, deprecated), ECA, 1-Electron XAS/XES, NRVS
   Peter Pinski           : DLPNO-MP2, DLPNO-MP2 Gradient
   Christoph Reimann      : Effective Core Potentials
   Marius Retegan         : Local ZFS, SOC
   Christoph Riplinger    : Optimizer, TS searches, QM/MM, DLPNO-CCSD(T), (RO)-DLPNO pert. Triples
   Michael Roemelt        : Original ROCIS implementation
   Masaaki Saitow         : Open-shell DLPNO-CCSD energy and density
   Barbara Sandhoefer     : DKH picture change effects
   Kantharuban Sivalingam : CASSCF convergence/infrastructure, NEVPT2 and variants, FIC-MRCI
   Bernardo de Souza      : ESD, SOC TD-DFT
   Georgi Stoychev        : AutoAux, RI-MP2 NMR, DLPNO-MP2 response, X2C
   Van Anh Tran           : RI-MP2 g-tensors
   Willem Van den Heuvel  : Paramagnetic NMR
   Zikuan Wang            : NOTCH, Electric field optimization 
   Frank Wennmohs         : Technical directorship and infrastructure
   Hang Xu                : AUTO-CI-Response properties 


 We gratefully acknowledge several colleagues who have allowed us to
 interface, adapt or use parts of their codes:
   Stefan Grimme, W. Hujo, H. Kruse, P. Pracht,  : VdW corrections, initial TS optimization,
                  C. Bannwarth, S. Ehlert,         DFT functionals, gCP, sTDA/sTD-DF
                  L. Wittmann, M. Mueller
   Ed Valeev, F. Pavosevic, A. Kumar             : LibInt (2-el integral package), F12 methods
   Garnet Chan, S. Sharma, J. Yang, R. Olivares  : DMRG
   Ulf Ekstrom                                   : XCFun DFT Library
   Mihaly Kallay                                 : mrcc  (arbitrary order and MRCC methods)
   Frank Weinhold                                : gennbo (NPA and NBO analysis)
   Simon Mueller                                 : openCOSMO-RS
   Christopher J. Cramer and Donald G. Truhlar   : smd solvation model
   Lars Goerigk                                  : TD-DFT with DH, B97 family of functionals
   V. Asgeirsson, H. Jonsson                     : NEB implementation
   FAccTs GmbH                                   : IRC, NEB, NEB-TS, DLPNO-Multilevel, CI-OPT
                                                   MM, QMMM, 2- and 3-layer-ONIOM, Crystal-QMMM,
                                                   LR-CPCM, SF, NACMEs, symmetry and pop. for TD-DFT,
                                                   nearIR, NL-DFT gradient (VV10), updates on ESD,
                                                   ML-optimized integration grids, MBIS, APM,
                                                   GOAT, DOCKER, SOLVATOR, interface openCOSMO-RS
   S Lehtola, MJT Oliveira, MAL Marques          : LibXC Library
   Liviu Ungur et al                             : ANISO software


 Your calculation uses the libint2 library for the computation of 2-el integrals
 For citations please refer to: http://libint.valeyev.net

 Your ORCA version has been built with support for libXC version: 6.2.2
 For citations please refer to: https://libxc.gitlab.io

 This ORCA versions uses:
   CBLAS   interface :  Fast vector & matrix operations
   LAPACKE interface :  Fast linear algebra routines
   SCALAPACK package :  Parallel linear algebra routines
   Shared memory     :  Shared parallel matrices
   BLAS/LAPACK       :  OpenBLAS 0.3.27  USE64BITINT DYNAMIC_ARCH NO_AFFINITY SapphireRapids SINGLE_THREADED
        Core in use  :  SapphireRapids
   Copyright (c) 2011-2014, The OpenBLAS Project




***************************************
The coordinates will be read from file: xtb_opt.xyz
***************************************


Your calculation utilizes the geometrical counterpoise correction gCP
Please cite in your paper:
H.Kruse, S. Grimme J.Chem.Phys., 136, (2012), 154101 
   

Your calculation utilizes the atom-pairwise dispersion correction
based on EEQ partial charges (D4)


Your calculation utilizes the SMD solvation module
Please cite in your paper:
A.V. Marenich, C.J. Cramer, D.G. Truhlar J. Phys. Chem. B, 113, (2009), 6378 

================================================================================

----- Orbital basis set information -----
Your calculation utilizes the basis: def2-mTZVPP
   Stefan Grimme, Andreas Hansen, Sebastian Ehlert, and Jan-Michael Mewes 
   J. Chem. Phys. 154, 064103 (2021). DOI: 10.1063/5.0040021

----- AuxJ basis set information -----
Your calculation utilizes the auxiliary basis: def2/J
   F. Weigend, Phys. Chem. Chem. Phys. 8, 1057 (2006).

================================================================================
                                        WARNINGS
                       Please study these warnings very carefully!
================================================================================

WARNING: Old DensityContainer found on disk!
         Will remove this file - 
         If you want to keep old densities, please start your calculation with a different basename. 

Using LibXC functional ID 497 : Re-regularized SCAN exchange by Furness et al
[ 1]  J. W. Furness, A. D. Kaplan, J. Ning, J. P. Perdew, and J. Sun.,  J. Phys. Chem. Lett. 11, 8208-8215 (2020)
[ 2]  J. W. Furness, A. D. Kaplan, J. Ning, J. P. Perdew, and J. Sun.,  J. Phys. Chem. Lett. 11, 9248-9248 (2020)
Using LibXC functional ID 498 : Re-regularized SCAN correlation by Furness et al
[ 1]  J. W. Furness, A. D. Kaplan, J. Ning, J. P. Perdew, and J. Sun.,  J. Phys. Chem. Lett. 11, 8208-8215 (2020)
[ 2]  J. W. Furness, A. D. Kaplan, J. Ning, J. P. Perdew, and J. Sun.,  J. Phys. Chem. Lett. 11, 9248-9248 (2020)
Using LibXC functional ID 497 : Re-regularized SCAN exchange by Furness et al
[ 1]  J. W. Furness, A. D. Kaplan, J. Ning, J. P. Perdew, and J. Sun.,  J. Phys. Chem. Lett. 11, 8208-8215 (2020)
[ 2]  J. W. Furness, A. D. Kaplan, J. Ning, J. P. Perdew, and J. Sun.,  J. Phys. Chem. Lett. 11, 9248-9248 (2020)
Using LibXC functional ID 498 : Re-regularized SCAN correlation by Furness et al
[ 1]  J. W. Furness, A. D. Kaplan, J. Ning, J. P. Perdew, and J. Sun.,  J. Phys. Chem. Lett. 11, 8208-8215 (2020)
[ 2]  J. W. Furness, A. D. Kaplan, J. Ning, J. P. Perdew, and J. Sun.,  J. Phys. Chem. Lett. 11, 9248-9248 (2020)

================================================================================
                                       INPUT FILE
================================================================================
NAME = xtb_opt.inp
|  1> ! r2scan-3c def2/J RI DEFGRID2 scfconv7 ENGRAD tightSCF miniprint
|  2> %cpcm
|  3>     smd true
|  4>     smdsolvent "water"
|  5> end
|  6> * xyzfile 0 1 xtb_opt.xyz
|  7> 
|  8>                          ****END OF INPUT****
================================================================================

                     *******************************
                     * Energy+Gradient Calculation *
                     *******************************

---------------------------------
CARTESIAN COORDINATES (ANGSTROEM)
---------------------------------
  C      2.878836   -2.482485    1.573593
  C      1.719328   -2.037628    0.718957
  O      1.648876   -0.572885    0.673545
  P      2.335792    0.329904   -0.462785
  S      3.209952   -0.599740   -1.928411
  O      3.329280    1.304465    0.339223
  C      2.911192    1.956677    1.601769
  C      3.613496    1.308033    2.766254
  S      0.807157    1.707930   -1.005170
  C     -0.144367    0.714304   -2.218076
  S     -0.949710   -0.829506   -1.628988
  P     -2.303930   -0.082529   -0.184611
  S     -3.083789    1.665033   -0.544909
  O     -1.449082   -0.253159    1.160232
  C     -1.914123    0.277545    2.452900
  C     -0.797288    1.092523    3.052511
  O     -3.331336   -1.318544   -0.044536
  C     -4.431323   -1.490868   -1.003082
  C     -5.187078   -2.729074   -0.596588
  H      2.784528   -2.102104    2.594153
  H      2.889311   -3.576349    1.613299
  H      3.830368   -2.144380    1.152252
  H      0.758714   -2.341247    1.141685
  H      1.795978   -2.417645   -0.303170
  H      3.196988    3.004498    1.481109
  H      1.822770    1.897957    1.705731
  H      3.316283    0.261672    2.874366
  H      4.699550    1.361056    2.648976
  H      3.339889    1.840260    3.682936
  H      0.515997    0.396313   -3.030279
  H     -0.904575    1.394660   -2.611564
  H     -2.814569    0.878498    2.298275
  H     -2.165947   -0.593435    3.062706
  H     -1.095328    1.427375    4.050681
  H      0.115848    0.496195    3.146441
  H     -0.586129    1.972780    2.437416
  H     -5.061948   -0.597580   -0.963670
  H     -4.004765   -1.587317   -2.007441
  H     -4.545191   -3.613388   -0.633386
  H     -5.595358   -2.623419    0.412442
  H     -6.019330   -2.876752   -1.291521

----------------------------
CARTESIAN COORDINATES (A.U.)
----------------------------
  NO LB      ZA    FRAG     MASS         X           Y           Z
   0 C     6.0000    0    12.011    5.440211   -4.691216    2.973660
   1 C     6.0000    0    12.011    3.249059   -3.850559    1.358633
   2 O     8.0000    0    15.999    3.115925   -1.082597    1.272816
   3 P    15.0000    0    30.974    4.414007    0.623428   -0.874536
   4 S    16.0000    0    32.060    6.065930   -1.133344   -3.644168
   5 O     8.0000    0    15.999    6.291427    2.465081    0.641039
   6 C     6.0000    0    12.011    5.501355    3.697583    3.026904
   7 C     6.0000    0    12.011    6.828518    2.471825    5.227463
   8 S    16.0000    0    32.060    1.525306    3.227520   -1.899496
   9 C     6.0000    0    12.011   -0.272814    1.349839   -4.191557
  10 S    16.0000    0    32.060   -1.794692   -1.567538   -3.078342
  11 P    15.0000    0    30.974   -4.353797   -0.155958   -0.348864
  12 S    16.0000    0    32.060   -5.827516    3.146456   -1.029730
  13 O     8.0000    0    15.999   -2.738369   -0.478402    2.192522
  14 C     6.0000    0    12.011   -3.617169    0.524484    4.635309
  15 C     6.0000    0    12.011   -1.506656    2.064569    5.768410
  16 O     8.0000    0    15.999   -6.295314   -2.491686   -0.084160
  17 C     6.0000    0    12.011   -8.373988   -2.817331   -1.895550
  18 C     6.0000    0    12.011   -9.802157   -5.157202   -1.127388
  19 H     1.0000    0     1.008    5.261995   -3.972401    4.902238
  20 H     1.0000    0     1.008    5.460006   -6.758319    3.048693
  21 H     1.0000    0     1.008    7.238347   -4.052291    2.177441
  22 H     1.0000    0     1.008    1.433763   -4.424317    2.157472
  23 H     1.0000    0     1.008    3.393908   -4.568686   -0.572909
  24 H     1.0000    0     1.008    6.041432    5.677678    2.798891
  25 H     1.0000    0     1.008    3.444537    3.586620    3.223365
  26 H     1.0000    0     1.008    6.266867    0.494489    5.431765
  27 H     1.0000    0     1.008    8.880863    2.572022    5.005838
  28 H     1.0000    0     1.008    6.311476    3.477587    6.959740
  29 H     1.0000    0     1.008    0.975092    0.748924   -5.726398
  30 H     1.0000    0     1.008   -1.709399    2.635526   -4.935140
  31 H     1.0000    0     1.008   -5.318765    1.660120    4.343110
  32 H     1.0000    0     1.008   -4.093047   -1.121430    5.787676
  33 H     1.0000    0     1.008   -2.069869    2.697348    7.654677
  34 H     1.0000    0     1.008    0.218921    0.937673    5.945911
  35 H     1.0000    0     1.008   -1.107623    3.728013    4.606048
  36 H     1.0000    0     1.008   -9.565695   -1.129262   -1.821072
  37 H     1.0000    0     1.008   -7.567909   -2.999593   -3.793513
  38 H     1.0000    0     1.008   -8.589166   -6.828313   -1.196927
  39 H     1.0000    0     1.008  -10.573693   -4.957543    0.779403
  40 H     1.0000    0     1.008  -11.374886   -5.436274   -2.440621

------------------------------------------------------------------------------
                   ___                                                        
                  /   \      - P O W E R E D   B Y -                         
                 /     \                                                     
                 |  |  |   _    _      __       _____    __    __             
                 |  |  |  | |  | |    /  \     |  _  \  |  |  /  |          
                  \  \/   | |  | |   /    \    | | | |  |  | /  /          
                 / \  \   | |__| |  /  /\  \   | |_| |  |  |/  /          
                |  |  |   |  __  | /  /__\  \  |    /   |      \           
                |  |  |   | |  | | |   __   |  |    \   |  |\   \          
                \     /   | |  | | |  |  |  |  | |\  \  |  | \   \       
                 \___/    |_|  |_| |__|  |__|  |_| \__\ |__|  \__/        
                                                                              
                      - O R C A' S   B I G   F R I E N D -                    
                                      &                                       
                       - I N T E G R A L  F E E D E R -                       
                                                                              
 v1 FN, 2020, v2 2021, v3 2022-2024                                           
------------------------------------------------------------------------------


----------------------
SHARK INTEGRAL PACKAGE
----------------------

Number of atoms                             ...     41
Number of basis functions                   ...    539
Number of shells                            ...    253
Maximum angular momentum                    ...      2
Integral batch strategy                     ... SHARK/LIBINT Hybrid
RI-J (if used) integral strategy            ... SPLIT-RIJ (Revised 2003 algorithm where possible)
Printlevel                                  ...      1
Contraction scheme used                     ... SEGMENTED contraction
Prescreening option                         ... SCHWARTZ
   Thresh                                   ... 3.000e-11
   Tcut                                     ... 1.000e-12
   Tpresel                                  ... 1.000e-12 
Coulomb Range Separation                    ... NOT USED
Exchange Range Separation                   ... NOT USED
Multipole approximations                    ... NOT USED
Finite Nucleus Model                        ... NOT USED
CABS basis                                  ... NOT available
Auxiliary Coulomb fitting basis             ... AVAILABLE
   # of basis functions in Aux-J            ...   1185
   # of shells in Aux-J                     ...    407
   Maximum angular momentum in Aux-J        ...      4
Auxiliary J/K fitting basis                 ... NOT available
Auxiliary Correlation fitting basis         ... NOT available
Auxiliary 'external' fitting basis          ... NOT available

Checking pre-screening integrals            ... done (  0.0 sec) Dimension = 253
Check shell pair data                       ... done (  0.0 sec)
Shell pair information
Shell pair cut-off parameter TPreSel        ...   1.0e-12
Total number of shell pairs                 ...     32131
Shell pairs after pre-screening             ...     22320
Total number of primitive shell pairs       ...    124843
Primitive shell pairs kept                  ...     52141
          la=0 lb=0:   6362 shell pairs
          la=1 lb=0:   8105 shell pairs
          la=1 lb=1:   2649 shell pairs
          la=2 lb=0:   2953 shell pairs
          la=2 lb=1:   1890 shell pairs
          la=2 lb=2:    361 shell pairs

Calculating one electron integrals          ... done (  0.1 sec)
Calculating RI/J V-Matrix + Cholesky decomp.... done (  0.1 sec)
Calculating Nuclear repulsion               ... done (  0.0 sec) ENN=   2741.843780893651 Eh

Diagonalization of the overlap matrix:
Smallest eigenvalue                        ... 3.264e-04
Time for diagonalization                   ...    0.031 sec
Threshold for overlap eigenvalues          ... 1.000e-07
Number of eigenvalues below threshold      ... 0
Time for construction of square roots      ...    0.065 sec
Total time needed                          ...    0.105 sec

-------------------
DFT GRID GENERATION
-------------------

General Integration Accuracy     IntAcc      ... 4.388
Radial Grid Type                 RadialGrid  ... OptM3 with GC (2021)
Angular Grid (max. ang.)         AngularGrid ... 4 (Lebedev-302)
Angular grid pruning method      GridPruning ... 4 (adaptive)
Weight generation scheme         WeightScheme... mBecke (2022)
Basis function cutoff            BFCut       ... 1.0000e-11
Integration weight cutoff        WCut        ... 1.0000e-14
Partially contracted basis set               ... off
Rotationally invariant grid construction     ... off
Angular grids for H and He will be reduced by one unit
Diffuse basis detected: some atoms will have their outermost
                        angular grid increased by 1.

Total number of grid points                  ...   192681
Total number of batches                      ...     3031
Average number of points per batch           ...       63
Average number of grid points per atom       ...     4700
Initializing property integral containers    ... done (  0.0 sec)

SHARK setup successfully completed in   3.2 seconds

Maximum memory used throughout the entire STARTUP-calculation: 103.6 MB
Occupation numbers will be reassigned to an Aufbau configuration
             **** ENERGY FILE WAS UPDATED (xtb_opt.en.tmp) ****
Finished Guess after   0.8 sec
Maximum memory used throughout the entire GUESS-calculation: 56.9 MB
--------------------
CPCM SOLVATION MODEL
--------------------
CPCM parameters:
  Epsilon                                         ...      78.3550
  Refrac                                          ...       1.3328
  Rsolv                                           ...       1.3000
  Surface type                                    ... GAUSSIAN VDW
  Discretization scheme                           ... Constant charge density
    Threshold for H atoms                         ...       5.0000 (charges/Ang^2)
    Threshold for non-H atoms                     ...       5.0000 (charges/Ang^2)
  Epsilon function type                           ...         CPCM
Solvent:                                          ... WATER
SMD-CDS solvent descriptors:
  Soln                                            ...       1.3328
  Soln25                                          ...       1.3323
  Sola                                            ...       0.0000
  Solb                                            ...       0.0000
  Solg                                            ...       0.0000
  Solc                                            ...       0.0000
  Solh                                            ...       0.0000
Radii:
  Scheme                                          ... Element-dependent radii
  Radius for C  used is    3.4960 Bohr (=   1.8500 Ang.)
  Radius for O  used is    2.8724 Bohr (=   1.5200 Ang.)
  Radius for P  used is    4.0062 Bohr (=   2.1200 Ang.)
  Radius for S  used is    4.7054 Bohr (=   2.4900 Ang.)
  Radius for H  used is    2.2677 Bohr (=   1.2000 Ang.)
Calculating surface                               ...        done! (  0.0s)
Cavity surface points                             ...         3477
Cavity Volume                                     ...    2832.9430
Cavity Surface-area                               ...    1457.5121
Calculating surface distance matrix               ...        done! (  0.1s)
Performing Cholesky decomposition & store         ...        done! (  0.6s)
Overall time for CPCM initialization              ...                 0.6s

----------------------------------------D-I-I-S--------------------------------------------
Iteration    Energy (Eh)           Delta-E    RMSDP     MaxDP     DIISErr   Damp  Time(sec)
-------------------------------------------------------------------------------------------
               ***  Starting incremental Fock matrix formation  ***
                              *** Initializing SOSCF ***
---------------------------------------S-O-S-C-F--------------------------------------
Iteration    Energy (Eh)           Delta-E    RMSDP     MaxDP     MaxGrad    Time(sec)
--------------------------------------------------------------------------------------
    1    -2932.5186801956679119     0.00e+00  1.46e-06  7.66e-05  7.23e-06    14.1
               *** Restarting incremental Fock matrix formation ***
    2    -2932.5186801910685972     4.60e-09  2.21e-06  1.15e-04  1.59e-05    13.9
                  *** Gradient check signals convergence ***

               *****************************************************
               *                     SUCCESS                       *
               *           SCF CONVERGED AFTER   2 CYCLES          *
               *****************************************************


SMD CDS free energy correction energy :                 6.92159     Kcal/mol
Total Energy after SMD CDS correction =             -2932.507649930 Eh
             **** ENERGY FILE WAS UPDATED (xtb_opt.en.tmp) ****

----------------
TOTAL SCF ENERGY
----------------

Total Energy       :      -2932.50764992971017 Eh          -79797.58999 eV

Components:
Nuclear Repulsion  :       2741.84378089365146 Eh           74609.36234 eV
Electronic Energy  :      -5674.33278879999489 Eh         -154406.44506 eV
One Electron Energy:      -9505.83079758257372 Eh         -258666.80637 eV
Two Electron Energy:       3831.49800878257838 Eh          104260.36131 eV
CPCM Dielectric    :         -0.02967228472397 Eh              -0.80742 eV
SMD CDS (Gcds)     :          0.01103026135854 Eh               0.30015 eV

Virial components:
Potential Energy   :      -5855.61233410743807 Eh         -159339.31227 eV
Kinetic Energy     :       2923.10468417772745 Eh           79541.72228 eV
Virial Ratio       :          2.00321677352265

DFT components:
N(Alpha)           :      100.999879022364 electrons
N(Beta)            :      100.999879022364 electrons
N(Total)           :      201.999758044728 electrons
E(X)               :     -233.398109009703 Eh       
E(C)               :       -7.103312429847 Eh       
E(XC)              :     -240.501421439550 Eh       

CPCM Solvation Model Properties:
Surface-charge          :         -0.04411335729032
Corrected charge        :         -0.00000000000000
Outlying charge corr.   :          0.00009916136705 Eh               0.00270 eV
Free-energy (cav+disp)  :          0.01103026135854 Eh               0.30015 eV

---------------
SCF CONVERGENCE
---------------

  Last Energy change         ...   -4.5993e-09  Tolerance :   1.0000e-07
  Last MAX-Density change    ...    1.1479e-04  Tolerance :   1.0000e-07
  Last RMS-Density change    ...    2.2144e-06  Tolerance :   5.0000e-09
  Last DIIS Error            ...    9.6877e-05  Tolerance :   1.0000e-07
  Last Orbital Gradient      ...    1.5852e-05  Tolerance :   1.0000e-04
  Last Orbital Rotation      ...    5.2502e-05  Tolerance :   1.0000e-04


----------------
ORBITAL ENERGIES
----------------

  NO   OCC          E(Eh)            E(eV) 
   0   2.0000     -88.583471     -2410.4788 
   1   2.0000     -88.580668     -2410.4025 
   2   2.0000     -88.531802     -2409.0728 
   3   2.0000     -88.531364     -2409.0609 
   4   2.0000     -76.921990     -2093.1538 
   5   2.0000     -76.921496     -2093.1403 
   6   2.0000     -18.994953      -516.8789 
   7   2.0000     -18.993734      -516.8458 
   8   2.0000     -18.992700      -516.8176 
   9   2.0000     -18.991572      -516.7869 
  10   2.0000     -10.111427      -275.1459 
  11   2.0000     -10.094557      -274.6869 
  12   2.0000     -10.092105      -274.6201 
  13   2.0000     -10.091739      -274.6102 
  14   2.0000     -10.090771      -274.5838 
  15   2.0000     -10.022293      -272.7204 
  16   2.0000     -10.021760      -272.7059 
  17   2.0000     -10.021727      -272.7051 
  18   2.0000     -10.020556      -272.6732 
  19   2.0000      -7.877038      -214.3451 
  20   2.0000      -7.874242      -214.2690 
  21   2.0000      -7.827143      -212.9874 
  22   2.0000      -7.826632      -212.9735 
  23   2.0000      -6.599465      -179.5806 
  24   2.0000      -6.599206      -179.5735 
  25   2.0000      -5.824085      -158.4814 
  26   2.0000      -5.821305      -158.4058 
  27   2.0000      -5.820751      -158.3907 
  28   2.0000      -5.817985      -158.3154 
  29   2.0000      -5.814289      -158.2148 
  30   2.0000      -5.811441      -158.1373 
  31   2.0000      -5.774710      -157.1378 
  32   2.0000      -5.774048      -157.1198 
  33   2.0000      -5.767486      -156.9413 
  34   2.0000      -5.767040      -156.9291 
  35   2.0000      -5.766975      -156.9274 
  36   2.0000      -5.766711      -156.9202 
  37   2.0000      -4.745278      -129.1256 
  38   2.0000      -4.744624      -129.1078 
  39   2.0000      -4.744171      -129.0955 
  40   2.0000      -4.744091      -129.0933 
  41   2.0000      -4.743396      -129.0744 
  42   2.0000      -4.743127      -129.0670 
  43   2.0000      -1.040377       -28.3101 
  44   2.0000      -1.038866       -28.2690 
  45   2.0000      -1.000877       -27.2353 
  46   2.0000      -0.999275       -27.1916 
  47   2.0000      -0.795012       -21.6334 
  48   2.0000      -0.756235       -20.5782 
  49   2.0000      -0.743992       -20.2450 
  50   2.0000      -0.726587       -19.7714 
  51   2.0000      -0.724591       -19.7171 
  52   2.0000      -0.709528       -19.3072 
  53   2.0000      -0.692402       -18.8412 
  54   2.0000      -0.677542       -18.4368 
  55   2.0000      -0.623840       -16.9756 
  56   2.0000      -0.611275       -16.6336 
  57   2.0000      -0.596708       -16.2373 
  58   2.0000      -0.593249       -16.1431 
  59   2.0000      -0.588901       -16.0248 
  60   2.0000      -0.533493       -14.5171 
  61   2.0000      -0.521314       -14.1857 
  62   2.0000      -0.492877       -13.4119 
  63   2.0000      -0.489926       -13.3316 
  64   2.0000      -0.468437       -12.7468 
  65   2.0000      -0.453586       -12.3427 
  66   2.0000      -0.450804       -12.2670 
  67   2.0000      -0.444736       -12.1019 
  68   2.0000      -0.440463       -11.9856 
  69   2.0000      -0.424934       -11.5630 
  70   2.0000      -0.414637       -11.2828 
  71   2.0000      -0.405483       -11.0337 
  72   2.0000      -0.402217       -10.9449 
  73   2.0000      -0.399701       -10.8764 
  74   2.0000      -0.390277       -10.6200 
  75   2.0000      -0.390024       -10.6131 
  76   2.0000      -0.379006       -10.3133 
  77   2.0000      -0.364785        -9.9263 
  78   2.0000      -0.361588        -9.8393 
  79   2.0000      -0.355672        -9.6783 
  80   2.0000      -0.354769        -9.6537 
  81   2.0000      -0.351517        -9.5653 
  82   2.0000      -0.349160        -9.5011 
  83   2.0000      -0.345293        -9.3959 
  84   2.0000      -0.343801        -9.3553 
  85   2.0000      -0.331622        -9.0239 
  86   2.0000      -0.319644        -8.6979 
  87   2.0000      -0.316785        -8.6202 
  88   2.0000      -0.313283        -8.5249 
  89   2.0000      -0.307107        -8.3568 
  90   2.0000      -0.300631        -8.1806 
  91   2.0000      -0.289920        -7.8891 
  92   2.0000      -0.284832        -7.7507 
  93   2.0000      -0.278789        -7.5862 
  94   2.0000      -0.275775        -7.5042 
  95   2.0000      -0.252555        -6.8724 
  96   2.0000      -0.242017        -6.5856 
  97   2.0000      -0.238138        -6.4801 
  98   2.0000      -0.231930        -6.3111 
  99   2.0000      -0.226510        -6.1637 
 100   2.0000      -0.220595        -6.0027 
 101   0.0000      -0.054085        -1.4717 
 102   0.0000      -0.029500        -0.8027 
 103   0.0000      -0.011973        -0.3258 
 104   0.0000      -0.002394        -0.0651 
 105   0.0000       0.000171         0.0046 
 106   0.0000       0.017928         0.4878 
 107   0.0000       0.024423         0.6646 
 108   0.0000       0.031483         0.8567 
 109   0.0000       0.039766         1.0821 
 110   0.0000       0.066795         1.8176 
 111   0.0000       0.072043         1.9604 
*Only the first 10 virtual orbitals were printed.
Total SCF time: 0 days 0 hours 0 min 29 sec 
Finished LeanSCF after  29.9 sec

Maximum memory used throughout the entire LEANSCF-calculation: 140.8 MB


-------------------------------------------------------------------------------
                          DFT DISPERSION CORRECTION                            
                                                                               
                                DFTD4 V3.4.0                                   
-------------------------------------------------------------------------------
-------------------------   ----------------
Dispersion correction           -0.021137408
-------------------------   ----------------

------------------   -----------------
gCP correction             0.044930197
------------------   -----------------

-------------------------   --------------------
FINAL SINGLE POINT ENERGY     -2932.483857140614
-------------------------   --------------------

------------------------------------------------------------------------------
                         ORCA SCF GRADIENT CALCULATION
------------------------------------------------------------------------------

Nuc. rep. gradient        (SHARK) ... done (  0.0 sec)
HCore & Overlap gradient  (SHARK) ... done (  2.1 sec)
Split-RIJ-J gradient      (SHARK) ... done (  9.8 sec)
XC gradient                       ... done ( 23.7 sec)
CPCM gradient                     ... done (  8.2 sec)
SMD gradient                      ... done (  0.0 sec)
Dispersion correction             ... done (  0.0 sec)

-------------------
DISPERSION GRADIENT
-------------------

   1   C   :    0.000068510   -0.000166116    0.000072637
   2   C   :    0.000080832   -0.000190166    0.000024288
   3   O   :    0.000098729   -0.000092131    0.000017097
   4   P   :    0.000257034    0.000041952   -0.000184309
   5   S   :    0.000225516   -0.000060387   -0.000243301
   6   O   :    0.000106163    0.000095310    0.000000587
   7   C   :    0.000103278    0.000127346    0.000060726
   8   C   :    0.000109430    0.000073508    0.000126559
   9   S   :    0.000083614    0.000249103   -0.000254837
  10   C   :   -0.000009584    0.000057641   -0.000170420
  11   S   :   -0.000084730   -0.000082076   -0.000275885
  12   P   :   -0.000254115    0.000034927   -0.000050329
  13   S   :   -0.000225392    0.000225726   -0.000065823
  14   O   :   -0.000108139   -0.000018596    0.000115586
  15   C   :   -0.000095443    0.000018528    0.000163176
  16   C   :   -0.000074794    0.000064761    0.000206852
  17   O   :   -0.000091718   -0.000060764   -0.000004648
  18   C   :   -0.000104405   -0.000053957   -0.000042461
  19   C   :   -0.000094649   -0.000091087   -0.000006850
  20   H   :    0.000021440   -0.000068775    0.000038716
  21   H   :    0.000012056   -0.000048392    0.000022632
  22   H   :    0.000027027   -0.000062391    0.000020407
  23   H   :    0.000023062   -0.000094617    0.000036373
  24   H   :    0.000034963   -0.000071994    0.000001560
  25   H   :    0.000036610    0.000049500    0.000020793
  26   H   :    0.000054313    0.000065338    0.000032649
  27   H   :    0.000053327    0.000021417    0.000059478
  28   H   :    0.000038196    0.000026158    0.000036984
  29   H   :    0.000034857    0.000025754    0.000044142
  30   H   :    0.000004360    0.000009964   -0.000064748
  31   H   :   -0.000009204    0.000033887   -0.000054862
  32   H   :   -0.000019618    0.000017547    0.000051664
  33   H   :   -0.000016518   -0.000009442    0.000067910
  34   H   :   -0.000017391    0.000014290    0.000052701
  35   H   :   -0.000046425    0.000013795    0.000098486
  36   H   :   -0.000039747    0.000045425    0.000084595
  37   H   :   -0.000049164   -0.000010517   -0.000009811
  38   H   :   -0.000038732   -0.000034352   -0.000024126
  39   H   :   -0.000031083   -0.000040369   -0.000001699
  40   H   :   -0.000035990   -0.000033099    0.000004029
  41   H   :   -0.000026474   -0.000022652   -0.000006517

Difference to translation invariance:
           :    0.0000000000    0.0000000000    0.0000000000

Difference to rotation invariance:
           :    0.0000000000   -0.0000000000   -0.0000000000

Norm of the Dispersion gradient    ...    0.0010502255
RMS gradient                       ...    0.0000946956
MAX gradient                       ...    0.0002758847
gCP correction                   ... done

------------------
CARTESIAN GRADIENT
------------------

   1   C   :   -0.000081108   -0.000198032    0.000068175
   2   C   :    0.000149391   -0.000064366   -0.000052982
   3   O   :    0.000468446    0.000303906   -0.000076474
   4   P   :   -0.000807970   -0.000624913   -0.000037799
   5   S   :    0.000054539    0.000045001    0.000098986
   6   O   :    0.000274927    0.000104314   -0.000133854
   7   C   :    0.000176913   -0.000228842   -0.000062414
   8   C   :    0.000007225    0.000040774    0.000250844
   9   S   :   -0.000002916    0.000429117   -0.000023770
  10   C   :    0.000192878   -0.000043524   -0.000211980
  11   S   :   -0.000148211    0.000035338    0.000170095
  12   P   :   -0.000519359    0.000107830   -0.000671709
  13   S   :    0.000073596   -0.000017480   -0.000050778
  14   O   :    0.000391170   -0.000027366    0.000839452
  15   C   :   -0.000190966   -0.000180376   -0.000144946
  16   C   :   -0.000302907   -0.000040212    0.000508959
  17   O   :   -0.000378227   -0.000124278   -0.000115679
  18   C   :    0.000397505    0.000009984    0.000223619
  19   C   :    0.000093642   -0.000148393    0.000157370
  20   H   :    0.000037776   -0.000057860   -0.000227594
  21   H   :    0.000036338    0.000328251    0.000016725
  22   H   :   -0.000141759   -0.000032276    0.000030973
  23   H   :   -0.000015728   -0.000041096   -0.000028895
  24   H   :    0.000034606    0.000056684    0.000052946
  25   H   :    0.000094641    0.000343525   -0.000069770
  26   H   :   -0.000416297    0.000020024   -0.000007717
  27   H   :    0.000098800    0.000119710    0.000163494
  28   H   :   -0.000018301   -0.000093907    0.000174009
  29   H   :    0.000060609   -0.000276299   -0.000129648
  30   H   :   -0.000035214    0.000048025    0.000079011
  31   H   :    0.000141664   -0.000102864    0.000149214
  32   H   :    0.000322945   -0.000267303    0.000042093
  33   H   :    0.000030408    0.000313454   -0.000150778
  34   H   :    0.000055234   -0.000216980   -0.000250923
  35   H   :    0.000006251    0.000135889   -0.000141612
  36   H   :    0.000101633    0.000182729   -0.000267654
  37   H   :   -0.000085977    0.000061233   -0.000031670
  38   H   :    0.000026444    0.000007222   -0.000098845
  39   H   :   -0.000146662    0.000031206    0.000018223
  40   H   :   -0.000043206   -0.000001202   -0.000043294
  41   H   :    0.000007228    0.000063352   -0.000013401

Difference to translation invariance:
           :   -0.0000000001    0.0000000000   -0.0000000000

Difference to rotation invariance:
           :   -0.0000913942   -0.0008093652   -0.0004755795

Norm of the Cartesian gradient     ...    0.0024258940
RMS gradient                       ...    0.0002187355
MAX gradient                       ...    0.0008394524

-------
TIMINGS
-------

Total SCF gradient time     ....       49.900 sec

Densities                   ....       0.007 sec  (  0.0%)
One electron gradient       ....       2.064 sec  (  4.1%)
RI-J Coulomb gradient       ....       9.762 sec  ( 19.6%)
XC gradient                 ....      23.694 sec  ( 47.5%)
CPCM gradient               ....       8.207 sec  ( 16.4%)
   A-Matrix (El+Nuc)        ....       0.270 sec  (  0.5%)
   Potential                ....       7.937 sec  ( 15.9%)
SMD gradient                ....       0.015 sec  (  0.0%)

Maximum memory used throughout the entire SCFGRAD-calculation: 87.3 MB

------------------------------------------------------------------------------
                              ORCA PROPERTY CALCULATIONS
------------------------------------------------------------------------------

GBWName                                 ... xtb_opt.gbw
Number of atoms                         ...     41
Number of basis functions               ...    539
Max core memory                         ...   1024 MB

Electric properties:
Dipole moment                           ... YES
Quadrupole moment                       ...  NO
Static polarizability (Dipole/Dipole)   ...  NO
Static polarizability (Dipole/Quad.)    ...  NO
Static polarizability (Quad./Quad.)     ...  NO
Static polarizability (Velocity)        ...  NO

Atomic electric properties:
Dipole moment                           ...  NO
Quadrupole moment                       ...  NO
Static polarizability                   ...  NO

Choice of electric origin               ... Center of mass
Position of electric origin             ...    -0.080427     0.030420    -0.126938

General magnetic properties:
Magnetizability                         ...  NO

EPR properties:
g-Tensor (aka g-matrix)                 ...  NO
Zero-Field splitting spin-orbit         ...  NO
Zero-field splitting spin-spin          ...  NO
Hyperfine couplings                     ...  NO (   0 nuclei)
Quadrupole couplings                    ...  NO (   0 nuclei)
Contact density                         ...  NO (   0 nuclei)

NMR properties:
Chemical shifts                         ...  NO (   0 nuclei)
Spin-rotation constants                 ...  NO (   0 nuclei)
Spin-spin couplings                     ...  NO (   0 nuclei,    0 pairs)

Choice of magnetic origin               ... GIAO
Position of magnetic origin             ...     0.000000     0.000000     0.000000

Properties with geometric perturbations:
SCF Hessian                             ...  NO
IR spectrum                             ...  NO
VCD spectrum                            ...  NO
X-ray spectroscopy properties:
SCF XES/XAS/RIXS spectra                ...  NO


-------------
DIPOLE MOMENT
-------------

Method             : SCF
Type of density    : Electron Density
Multiplicity       :   1
Irrep              :   0
Energy             : -2932.5076499297101691 Eh
Relativity type    : 
Basis              : AO
                                X                 Y                 Z
Electronic contribution:      1.382099548       8.642556400     -21.796588964
Nuclear contribution   :     -2.721605992      -9.544708998      24.031336165
                        -----------------------------------------
Total Dipole Moment    :     -1.339506444      -0.902152597       2.234747201
                        -----------------------------------------
Magnitude (a.u.)       :      2.757218140
Magnitude (Debye)      :      7.008291555



--------------------
Rotational spectrum 
--------------------
 
Rotational constants in cm-1:             0.011544             0.004975             0.004712 
Rotational constants in MHz :           346.094376           149.160094           141.269018 

Dipole components along the rotational axes: 
x,y,z [a.u.] :     1.219205    -1.933215     1.542229 
x,y,z [Debye]:     3.098972    -4.913843     3.920034 

 

Dipole moment calculation done in   0.0 sec 

Maximum memory used throughout the entire PROP-calculation: 53.2 MB

--------------------------------
SUGGESTED CITATIONS FOR THIS RUN
--------------------------------

Below you find a list of papers that are relevant to this ORCA run
We neither can nor want to force you to cite these papers, but we appreciate if you do
You receive ORCA, which is the product of decades of hard work by many enthusiastic individuals, for free
The only thing we kindly ask in return is that you cite our papers,
We deeply appreciate it, if you show your appreciation for ORCA by not just citing the generic ORCA reference.

Please note that relegating all ORCA citations to the supporting information does *not* help us.
SI sections are not indexed - citations you put there will not count into any citation statistics
But we need these citations in order to attract the funding resources that allow us to do what we are doing

Therefore, if you are a happy ORCA user, please consider citing a few of the papers listed below in the main body of your paper

In addition to the list printed below, the program has created the file xtb_opt.bibtex that contains the list in bibtex format
You can import this file easily into all common literature databanks and citation aid programs


List of essential papers. We consider these as the minimum necessary citations

  1. Neese,F.
     Software update: the ORCA program system, version 5.0
     WIRES Comput. Molec. Sci., 2022 12(1)e1606
     doi.org/10.1002/wcms.1606
  2. Grimme,S.; Hansen,A.; Ehlert,S.; Mewes,J.
     r2SCAN-3c: A 'Swiss army knife' composite electronic-structure method
     J. Chem. Phys., 2021 154 064103
     doi.org/10.1063/5.0040021

List of papers to cite with high priority. The work reported in these papers was absolutely
necessary for this run to complete.
Our perspective: the developers of density functionals and basis sets usually get cited in chemistry papers
Good! But without the algorithms to do something with them, the functionals or basis sets would not do anything.
Hence, in our opinion, the algorithm design and method developments papers are equally worthy of getting cited

  1. Neese,F.
     An improvement of the resolution of the identity approximation for the formation of the Coulomb matrix
     J. Comp. Chem., 2003 24(14)1740-1747
     doi.org/10.1002/jcc.10318
  2. Garcia-Rates,M.; Neese,F.
     Effect of the Solute Cavity on the Solvation Energy and its Derivatives within the Framework of the Gaussian Charge Scheme
     J. Comput. Chem., 2020 41 922-939
     doi.org/10.1002/jcc.26139
  3. Neese,F.
     The SHARK Integral Generation and Digestion System
     J. Comp. Chem., 2022  1-16
     doi.org/10.1002/jcc.26942
  4. Lehtola,S.; Steigemann,C.; Oliveira,M.; Marques,M.
     Recent developments in Libxc - A comprehensive library of functionals for density functional theory
     Software X, 2018 7 
     doi.org/10.1016/j.softx.2017.11.002
  5. Caldeweyher,E.; Bannwarth,C.; Grimme,S.
     Extension of the D3 dispersion coefficient model
     J. Chem. Phys., 2017 147 034112-XXXX
     doi.org/10.1063/1.4993215
  6. Caldeweyher,E.; Ehlert,S.; Hansen,A.; Neugebauer,H.; Spicher,S.; Bannwarth,C.; Grimme,S.
     A generally applicable atomic-charge dependent London dispersion correction
     J. Chem. Phys., 2019 150 154122-XXXX
     doi.org/10.1063/1.5090222
  7. Caldeweyher,E.; Mewes,J.; Ehlert,S.; Grimme,S.
     Extension and evaluation of the D4 London-dispersion model for periodic systems
     Phys. Chem. Chem. Phys., 2020 22(16)8499-8512
     doi.org/10.1039/D0CP00502A

List of suggested additional citations. These are papers that are important in the 'surrounding' of 
of this run, or papers that preceded the highly important papers. If you like your results we are grateful for a citation.

  1. Neese,F.
     The ORCA program system
     WIRES Comput. Molec. Sci., 2012 2(1)73-78
     doi.org/10.1002/wcms.81
  2. Neese,F.
     Software update: the ORCA program system, version 4.0
     WIRES Comput. Molec. Sci., 2018 8(1)1-6
     doi.org/10.1002/wcms.1327
  3. Neese,F.; Wennmohs,F.; Becker,U.; Riplinger,C.
     The ORCA quantum chemistry program package
     J. Chem. Phys., 2020 152 Art. No. L224108
     doi.org/10.1063/5.0004608

List of optional additional citations

  1. Neese,F.
     Approximate second-order SCF convergence for spin unrestricted wavefunctions
     Chem. Phys. Lett., 2000 325(1-3)93-98
     doi.org/10.1016/s0009-2614(00)00662-x

Timings for individual modules:

Sum of individual times          ...       84.217 sec (=   1.404 min)
Startup calculation              ...        3.211 sec (=   0.054 min)   3.8 %
SCF iterations                   ...       30.723 sec (=   0.512 min)  36.5 %
Property calculations            ...        0.207 sec (=   0.003 min)   0.2 %
SCF Gradient evaluation          ...       50.077 sec (=   0.835 min)  59.5 %
                             ****ORCA TERMINATED NORMALLY****
TOTAL RUN TIME: 0 days 0 hours 1 minutes 25 seconds 258 msec
  ------------------------------------------------------------------------
          * successful ORCA run, taking over control again...

         :::::::::::::::::::::::::::::::::::::::::::::::::::::
         ::                  ORCA SUMMARY                   ::
         :::::::::::::::::::::::::::::::::::::::::::::::::::::
         :: total energy           -2932.483857140614 Eh    ::
         :: gradient norm              0.002425893955 Eh/a0 ::
         :: HOMO-LUMO gap              0.000000000000 eV    ::
         :::::::::::::::::::::::::::::::::::::::::::::::::::::

      ----------------------------------------------------------- 
     |                       L-ANC optimizer                     |
      ----------------------------------------------------------- 
          low memory version by Sebastian Ehlert

          ...................................................
          :                      SETUP                      :
          :.................................................:
          :   energy convergence        0.5000000E-05 Eh    :
          :   grad. convergence         0.1000000E-02 Eh/a0 :
          :   optimization log               true           :
          :   writing optlog all                1     steps :
          :   Hessian reset                     8     steps :
          :   maximium step len.        1.0000000     a0    :
          :   LBFGS images                      8           :
          ...................................................
 * calculating model hessian...
Using Lindh-Hessian (1995)
 Shifting diagonal of input Hessian by   1.000636128743281E-002
 Lowest  eigenvalues of input Hessian
    0.010000    0.000000    0.000000    0.000000    0.000000    0.000000
    0.000000    0.010153    0.010389    0.010733    0.011100    0.011597
    0.011633    0.011945    0.012037    0.012388    0.012533    0.013228
 Highest eigenvalues
    1.285457    1.289738    1.699054    1.722570    1.878417    1.932523
 

........................................................................
.............................. CYCLE    1 ..............................
........................................................................
                         * ORCA takes the control...
  ------------------------------------------------------------------------

                                 *****************
                                 * O   R   C   A *
                                 *****************

                                            #,                                       
                                            ###                                      
                                            ####                                     
                                            #####                                    
                                            ######                                   
                                           ########,                                 
                                     ,,################,,,,,                         
                               ,,#################################,,                 
                          ,,##########################################,,             
                       ,#########################################, ''#####,          
                    ,#############################################,,   '####,        
                  ,##################################################,,,,####,       
                ,###########''''           ''''###############################       
              ,#####''   ,,,,##########,,,,          '''####'''          '####       
            ,##' ,,,,###########################,,,                        '##       
           ' ,,###''''                  '''############,,,                           
         ,,##''                                '''############,,,,        ,,,,,,###''
      ,#''                                            '''#######################'''  
     '                                                          ''''####''''         
             ,#######,   #######,   ,#######,      ##                                
            ,#'     '#,  ##    ##  ,#'     '#,    #''#        ,####,   ,####,        
            ##       ##  ##   ,#'  ##            #'  '#       #'       #'  '#        
            ##       ##  #######   ##           ,######,      #####,   #    #        
            '#,     ,#'  ##    ##  '#,     ,#' ,#      #,     #,   #   #,  ,#        
             '#######'   ##     ##  '#######'  #'      '#     '####' # '####'        



                #########################################################
                #                        -***-                          #
                #          Department of theory and spectroscopy        #
                #                                                       #
                #                      Frank Neese                      #
                #                                                       #
                #     Directorship, Architecture, Infrastructure        #
                #                    SHARK, DRIVERS                     #
                #        Core code/Algorithms in most modules           #
                #                                                       #
                #        Max Planck Institute fuer Kohlenforschung      #
                #                Kaiser Wilhelm Platz 1                 #
                #                 D-45470 Muelheim/Ruhr                 #
                #                      Germany                          #
                #                                                       #
                #                  All rights reserved                  #
                #                        -***-                          #
                #########################################################


                         Program Version 6.0.0  -   RELEASE  -


 With contributions from (in alphabetic order):
   Daniel Aravena         : Magnetic Suceptibility
   Michael Atanasov       : Ab Initio Ligand Field Theory (pilot matlab implementation)
   Alexander A. Auer      : GIAO ZORA, VPT2 properties, NMR spectrum
   Ute Becker             : All parallelization in ORCA, NUMFREQ, NUMCALC
   Giovanni Bistoni       : ED, misc. LED, open-shell LED, HFLD
   Martin Brehm           : Molecular dynamics
   Dmytro Bykov           : pre 5.0 version of the SCF Hessian
   Marcos Casanova-Páez   : Triplet and SCS-CIS(D). UHF-(DLPNO)-IP/EA/STEOM-CCSD. UHF-CVS-IP/STEOM-CCSD
   Vijay G. Chilkuri      : MRCI spin determinant printing, contributions to CSF-ICE
   Pauline Colinet        : FMM embedding
   Dipayan Datta          : RHF DLPNO-CCSD density
   Achintya Kumar Dutta   : EOM-CC, STEOM-CC
   Nicolas Foglia         : Exact transition moments, OPA infrastructure, MCD improvements
   Dmitry Ganyushin       : Spin-Orbit,Spin-Spin,Magnetic field MRCI
   Miquel Garcia          : C-PCM and meta-GGA Hessian, CCSD/C-PCM, Gaussian charge scheme
   Tiago L. C. Gouveia    : GS-ROHF, GS-ROCIS
   Yang Guo               : DLPNO-NEVPT2, F12-NEVPT2, CIM, IAO-localization
   Andreas Hansen         : Spin unrestricted coupled pair/coupled cluster methods
   Ingolf Harden          : AUTO-CI MPn and infrastructure 
   Benjamin Helmich-Paris : MC-RPA, TRAH-(SCF,CASSCF), AVAS, COSX integrals, SCF dyn. polar.
   Lee Huntington         : MR-EOM, pCC
   Robert Izsak           : Overlap fitted RIJCOSX, COSX-SCS-MP3, EOM
   Riya Kayal             : Wick's Theorem for AUTO-CI, AUTO-CI UHF-CCSDT
   Emily Kempfer          : AUTO-CI, RHF CISDT and CCSDT
   Christian Kollmar      : KDIIS, OOCD, Brueckner-CCSD(T), CCSD density, CASPT2, CASPT2-K, improved NEVPT2
   Axel Koslowski         : Symmetry handling
   Simone Kossmann        : Meta GGA functionals, TD-DFT gradient, OOMP2, (MP2 Hessian; deprecated post 5.0)
   Lucas Lang             : DCDCAS
   Marvin Lechner         : AUTO-CI (C++ implementation), FIC-MRCC
   Spencer Leger          : CASSCF response
   Dagmar Lenk            : GEPOL surface, SMD, ORCA-2-JSON
   Dimitrios Liakos       : Extrapolation schemes; Compound Job, initial MDCI parallelization
   Dimitrios Manganas     : Further ROCIS development; embedding schemes. LFT, Crystal Embedding
   Dimitrios Pantazis     : SARC Basis sets
   Anastasios Papadopoulos: AUTO-CI, single reference methods and gradients
   Taras Petrenko         : pre 6.0 DFT Hessian and TD-DFT gradient, (ASA, deprecated), ECA, 1-Electron XAS/XES, NRVS
   Peter Pinski           : DLPNO-MP2, DLPNO-MP2 Gradient
   Christoph Reimann      : Effective Core Potentials
   Marius Retegan         : Local ZFS, SOC
   Christoph Riplinger    : Optimizer, TS searches, QM/MM, DLPNO-CCSD(T), (RO)-DLPNO pert. Triples
   Michael Roemelt        : Original ROCIS implementation
   Masaaki Saitow         : Open-shell DLPNO-CCSD energy and density
   Barbara Sandhoefer     : DKH picture change effects
   Kantharuban Sivalingam : CASSCF convergence/infrastructure, NEVPT2 and variants, FIC-MRCI
   Bernardo de Souza      : ESD, SOC TD-DFT
   Georgi Stoychev        : AutoAux, RI-MP2 NMR, DLPNO-MP2 response, X2C
   Van Anh Tran           : RI-MP2 g-tensors
   Willem Van den Heuvel  : Paramagnetic NMR
   Zikuan Wang            : NOTCH, Electric field optimization 
   Frank Wennmohs         : Technical directorship and infrastructure
   Hang Xu                : AUTO-CI-Response properties 


 We gratefully acknowledge several colleagues who have allowed us to
 interface, adapt or use parts of their codes:
   Stefan Grimme, W. Hujo, H. Kruse, P. Pracht,  : VdW corrections, initial TS optimization,
                  C. Bannwarth, S. Ehlert,         DFT functionals, gCP, sTDA/sTD-DF
                  L. Wittmann, M. Mueller
   Ed Valeev, F. Pavosevic, A. Kumar             : LibInt (2-el integral package), F12 methods
   Garnet Chan, S. Sharma, J. Yang, R. Olivares  : DMRG
   Ulf Ekstrom                                   : XCFun DFT Library
   Mihaly Kallay                                 : mrcc  (arbitrary order and MRCC methods)
   Frank Weinhold                                : gennbo (NPA and NBO analysis)
   Simon Mueller                                 : openCOSMO-RS
   Christopher J. Cramer and Donald G. Truhlar   : smd solvation model
   Lars Goerigk                                  : TD-DFT with DH, B97 family of functionals
   V. Asgeirsson, H. Jonsson                     : NEB implementation
   FAccTs GmbH                                   : IRC, NEB, NEB-TS, DLPNO-Multilevel, CI-OPT
                                                   MM, QMMM, 2- and 3-layer-ONIOM, Crystal-QMMM,
                                                   LR-CPCM, SF, NACMEs, symmetry and pop. for TD-DFT,
                                                   nearIR, NL-DFT gradient (VV10), updates on ESD,
                                                   ML-optimized integration grids, MBIS, APM,
                                                   GOAT, DOCKER, SOLVATOR, interface openCOSMO-RS
   S Lehtola, MJT Oliveira, MAL Marques          : LibXC Library
   Liviu Ungur et al                             : ANISO software


 Your calculation uses the libint2 library for the computation of 2-el integrals
 For citations please refer to: http://libint.valeyev.net

 Your ORCA version has been built with support for libXC version: 6.2.2
 For citations please refer to: https://libxc.gitlab.io

 This ORCA versions uses:
   CBLAS   interface :  Fast vector & matrix operations
   LAPACKE interface :  Fast linear algebra routines
   SCALAPACK package :  Parallel linear algebra routines
   Shared memory     :  Shared parallel matrices
   BLAS/LAPACK       :  OpenBLAS 0.3.27  USE64BITINT DYNAMIC_ARCH NO_AFFINITY SapphireRapids SINGLE_THREADED
        Core in use  :  SapphireRapids
   Copyright (c) 2011-2014, The OpenBLAS Project




***************************************
The coordinates will be read from file: xtb_opt.xyz
***************************************


Your calculation utilizes the geometrical counterpoise correction gCP
Please cite in your paper:
H.Kruse, S. Grimme J.Chem.Phys., 136, (2012), 154101 
   

Your calculation utilizes the atom-pairwise dispersion correction
based on EEQ partial charges (D4)


Your calculation utilizes the SMD solvation module
Please cite in your paper:
A.V. Marenich, C.J. Cramer, D.G. Truhlar J. Phys. Chem. B, 113, (2009), 6378 

================================================================================

----- Orbital basis set information -----
Your calculation utilizes the basis: def2-mTZVPP
   Stefan Grimme, Andreas Hansen, Sebastian Ehlert, and Jan-Michael Mewes 
   J. Chem. Phys. 154, 064103 (2021). DOI: 10.1063/5.0040021

----- AuxJ basis set information -----
Your calculation utilizes the auxiliary basis: def2/J
   F. Weigend, Phys. Chem. Chem. Phys. 8, 1057 (2006).

================================================================================
                                        WARNINGS
                       Please study these warnings very carefully!
================================================================================

WARNING: Old DensityContainer found on disk!
         Will remove this file - 
         If you want to keep old densities, please start your calculation with a different basename. 

Using LibXC functional ID 497 : Re-regularized SCAN exchange by Furness et al
[ 1]  J. W. Furness, A. D. Kaplan, J. Ning, J. P. Perdew, and J. Sun.,  J. Phys. Chem. Lett. 11, 8208-8215 (2020)
[ 2]  J. W. Furness, A. D. Kaplan, J. Ning, J. P. Perdew, and J. Sun.,  J. Phys. Chem. Lett. 11, 9248-9248 (2020)
Using LibXC functional ID 498 : Re-regularized SCAN correlation by Furness et al
[ 1]  J. W. Furness, A. D. Kaplan, J. Ning, J. P. Perdew, and J. Sun.,  J. Phys. Chem. Lett. 11, 8208-8215 (2020)
[ 2]  J. W. Furness, A. D. Kaplan, J. Ning, J. P. Perdew, and J. Sun.,  J. Phys. Chem. Lett. 11, 9248-9248 (2020)
Using LibXC functional ID 497 : Re-regularized SCAN exchange by Furness et al
[ 1]  J. W. Furness, A. D. Kaplan, J. Ning, J. P. Perdew, and J. Sun.,  J. Phys. Chem. Lett. 11, 8208-8215 (2020)
[ 2]  J. W. Furness, A. D. Kaplan, J. Ning, J. P. Perdew, and J. Sun.,  J. Phys. Chem. Lett. 11, 9248-9248 (2020)
Using LibXC functional ID 498 : Re-regularized SCAN correlation by Furness et al
[ 1]  J. W. Furness, A. D. Kaplan, J. Ning, J. P. Perdew, and J. Sun.,  J. Phys. Chem. Lett. 11, 8208-8215 (2020)
[ 2]  J. W. Furness, A. D. Kaplan, J. Ning, J. P. Perdew, and J. Sun.,  J. Phys. Chem. Lett. 11, 9248-9248 (2020)

================================================================================
                                       INPUT FILE
================================================================================
NAME = xtb_opt.inp
|  1> ! r2scan-3c def2/J RI DEFGRID2 scfconv7 ENGRAD tightSCF miniprint
|  2> %cpcm
|  3>     smd true
|  4>     smdsolvent "water"
|  5> end
|  6> * xyzfile 0 1 xtb_opt.xyz
|  7> 
|  8>                          ****END OF INPUT****
================================================================================

                     *******************************
                     * Energy+Gradient Calculation *
                     *******************************

---------------------------------
CARTESIAN COORDINATES (ANGSTROEM)
---------------------------------
  C      2.878388   -2.482428    1.574209
  C      1.718774   -2.037611    0.719290
  O      1.648603   -0.572911    0.672716
  P      2.338745    0.329636   -0.462292
  S      3.210834   -0.599859   -1.929387
  O      3.330296    1.304893    0.340803
  C      2.910745    1.957297    1.602459
  C      3.613556    1.308775    2.766097
  S      0.806215    1.702601   -1.004377
  C     -0.147086    0.713664   -2.219447
  S     -0.950766   -0.831149   -1.631460
  P     -2.302525   -0.082084   -0.185028
  S     -3.084462    1.665050   -0.543411
  O     -1.448794   -0.252680    1.159963
  C     -1.914120    0.278074    2.452934
  C     -0.796525    1.091649    3.053294
  O     -3.329901   -1.318134   -0.045429
  C     -4.431088   -1.490031   -1.003336
  C     -5.186182   -2.728683   -0.597297
  H      2.783868   -2.102085    2.595070
  H      2.888371   -3.576716    1.613721
  H      3.830310   -2.144615    1.153013
  H      0.758099   -2.340586    1.142266
  H      1.795258   -2.418456   -0.302636
  H      3.195966    3.004822    1.481959
  H      1.822893    1.897607    1.706377
  H      3.316119    0.262168    2.873181
  H      4.699450    1.362456    2.647011
  H      3.340351    1.841833    3.682817
  H      0.513618    0.396124   -3.031723
  H     -0.906907    1.395046   -2.612530
  H     -2.814422    0.880179    2.298286
  H     -2.166541   -0.593559    3.062330
  H     -1.095125    1.427988    4.051198
  H      0.115576    0.493846    3.148837
  H     -0.584220    1.971614    2.438828
  H     -5.061573   -0.596853   -0.962928
  H     -4.005139   -1.586064   -2.007856
  H     -4.543230   -3.612364   -0.634683
  H     -5.593696   -2.623681    0.412166
  H     -6.018779   -2.877091   -1.291685

----------------------------
CARTESIAN COORDINATES (A.U.)
----------------------------
  NO LB      ZA    FRAG     MASS         X           Y           Z
   0 C     6.0000    0    12.011    5.439364   -4.691109    2.974824
   1 C     6.0000    0    12.011    3.248012   -3.850527    1.359260
   2 O     8.0000    0    15.999    3.115409   -1.082644    1.271249
   3 P    15.0000    0    30.974    4.419588    0.622922   -0.873605
   4 S    16.0000    0    32.060    6.067597   -1.133568   -3.646014
   5 O     8.0000    0    15.999    6.293348    2.465891    0.644024
   6 C     6.0000    0    12.011    5.500511    3.698755    3.028209
   7 C     6.0000    0    12.011    6.828632    2.473226    5.227166
   8 S    16.0000    0    32.060    1.523526    3.217450   -1.897998
   9 C     6.0000    0    12.011   -0.277952    1.348630   -4.194147
  10 S    16.0000    0    32.060   -1.796687   -1.570643   -3.083013
  11 P    15.0000    0    30.974   -4.351141   -0.155117   -0.349652
  12 S    16.0000    0    32.060   -5.828789    3.146489   -1.026898
  13 O     8.0000    0    15.999   -2.737825   -0.477496    2.192012
  14 C     6.0000    0    12.011   -3.617162    0.525483    4.635374
  15 C     6.0000    0    12.011   -1.505213    2.062918    5.769890
  16 O     8.0000    0    15.999   -6.292602   -2.490912   -0.085847
  17 C     6.0000    0    12.011   -8.373543   -2.815751   -1.896031
  18 C     6.0000    0    12.011   -9.800464   -5.156464   -1.128727
  19 H     1.0000    0     1.008    5.260747   -3.972366    4.903973
  20 H     1.0000    0     1.008    5.458231   -6.759015    3.049491
  21 H     1.0000    0     1.008    7.238237   -4.052735    2.178880
  22 H     1.0000    0     1.008    1.432599   -4.423066    2.158569
  23 H     1.0000    0     1.008    3.392547   -4.570220   -0.571899
  24 H     1.0000    0     1.008    6.039501    5.678291    2.800497
  25 H     1.0000    0     1.008    3.444769    3.585957    3.224585
  26 H     1.0000    0     1.008    6.266556    0.495426    5.429525
  27 H     1.0000    0     1.008    8.880674    2.574668    5.002126
  28 H     1.0000    0     1.008    6.312348    3.480561    6.959515
  29 H     1.0000    0     1.008    0.970598    0.748567   -5.729125
  30 H     1.0000    0     1.008   -1.713807    2.636254   -4.936966
  31 H     1.0000    0     1.008   -5.318486    1.663297    4.343130
  32 H     1.0000    0     1.008   -4.094169   -1.121664    5.786966
  33 H     1.0000    0     1.008   -2.069487    2.698506    7.655655
  34 H     1.0000    0     1.008    0.218406    0.933234    5.950439
  35 H     1.0000    0     1.008   -1.104016    3.725811    4.608717
  36 H     1.0000    0     1.008   -9.564987   -1.127888   -1.819670
  37 H     1.0000    0     1.008   -7.568616   -2.997227   -3.794299
  38 H     1.0000    0     1.008   -8.585460   -6.826380   -1.199377
  39 H     1.0000    0     1.008  -10.570553   -4.958038    0.778881
  40 H     1.0000    0     1.008  -11.373843   -5.436914   -2.440930

------------------------------------------------------------------------------
                   ___                                                        
                  /   \      - P O W E R E D   B Y -                         
                 /     \                                                     
                 |  |  |   _    _      __       _____    __    __             
                 |  |  |  | |  | |    /  \     |  _  \  |  |  /  |          
                  \  \/   | |  | |   /    \    | | | |  |  | /  /          
                 / \  \   | |__| |  /  /\  \   | |_| |  |  |/  /          
                |  |  |   |  __  | /  /__\  \  |    /   |      \           
                |  |  |   | |  | | |   __   |  |    \   |  |\   \          
                \     /   | |  | | |  |  |  |  | |\  \  |  | \   \       
                 \___/    |_|  |_| |__|  |__|  |_| \__\ |__|  \__/        
                                                                              
                      - O R C A' S   B I G   F R I E N D -                    
                                      &                                       
                       - I N T E G R A L  F E E D E R -                       
                                                                              
 v1 FN, 2020, v2 2021, v3 2022-2024                                           
------------------------------------------------------------------------------


----------------------
SHARK INTEGRAL PACKAGE
----------------------

Number of atoms                             ...     41
Number of basis functions                   ...    539
Number of shells                            ...    253
Maximum angular momentum                    ...      2
Integral batch strategy                     ... SHARK/LIBINT Hybrid
RI-J (if used) integral strategy            ... SPLIT-RIJ (Revised 2003 algorithm where possible)
Printlevel                                  ...      1
Contraction scheme used                     ... SEGMENTED contraction
Prescreening option                         ... SCHWARTZ
   Thresh                                   ... 3.000e-11
   Tcut                                     ... 1.000e-12
   Tpresel                                  ... 1.000e-12 
Coulomb Range Separation                    ... NOT USED
Exchange Range Separation                   ... NOT USED
Multipole approximations                    ... NOT USED
Finite Nucleus Model                        ... NOT USED
CABS basis                                  ... NOT available
Auxiliary Coulomb fitting basis             ... AVAILABLE
   # of basis functions in Aux-J            ...   1185
   # of shells in Aux-J                     ...    407
   Maximum angular momentum in Aux-J        ...      4
Auxiliary J/K fitting basis                 ... NOT available
Auxiliary Correlation fitting basis         ... NOT available
Auxiliary 'external' fitting basis          ... NOT available

Checking pre-screening integrals            ... done (  0.0 sec) Dimension = 253
Check shell pair data                       ... done (  0.0 sec)
Shell pair information
Shell pair cut-off parameter TPreSel        ...   1.0e-12
Total number of shell pairs                 ...     32131
Shell pairs after pre-screening             ...     22321
Total number of primitive shell pairs       ...    124843
Primitive shell pairs kept                  ...     52146
          la=0 lb=0:   6362 shell pairs
          la=1 lb=0:   8105 shell pairs
          la=1 lb=1:   2649 shell pairs
          la=2 lb=0:   2955 shell pairs
          la=2 lb=1:   1889 shell pairs
          la=2 lb=2:    361 shell pairs

Calculating one electron integrals          ... done (  0.1 sec)
Calculating RI/J V-Matrix + Cholesky decomp.... done (  0.1 sec)
[...]
CPCM gradient                     ... done (  8.3 sec)
SMD gradient                      ... done (  0.0 sec)
Dispersion correction             ... done (  0.0 sec)

-------------------
DISPERSION GRADIENT
-------------------

   1   C   :    0.000068533   -0.000166177    0.000072743
   2   C   :    0.000080818   -0.000190221    0.000024355
   3   O   :    0.000098471   -0.000092283    0.000016869
   4   P   :    0.000257192    0.000041731   -0.000184226
   5   S   :    0.000225868   -0.000060529   -0.000243151
   6   O   :    0.000106214    0.000095330    0.000000590
   7   C   :    0.000103305    0.000127532    0.000060757
   8   C   :    0.000109573    0.000073697    0.000126359
   9   S   :    0.000083692    0.000248678   -0.000255142
  10   C   :   -0.000009658    0.000057661   -0.000170451
  11   S   :   -0.000084675   -0.000081822   -0.000275965
  12   P   :   -0.000254312    0.000035177   -0.000050275
  13   S   :   -0.000225442    0.000225882   -0.000065442
  14   O   :   -0.000108200   -0.000018421    0.000115667
  15   C   :   -0.000095483    0.000018581    0.000162971
  16   C   :   -0.000074781    0.000064490    0.000207111
  17   O   :   -0.000091920   -0.000060803   -0.000004779
  18   C   :   -0.000104338   -0.000053815   -0.000042310
  19   C   :   -0.000094595   -0.000091165   -0.000006901
  20   H   :    0.000021491   -0.000068806    0.000038741
  21   H   :    0.000012060   -0.000048331    0.000022652
  22   H   :    0.000027023   -0.000062408    0.000020467
  23   H   :    0.000023062   -0.000094591    0.000036390
  24   H   :    0.000034870   -0.000072065    0.000001680
  25   H   :    0.000036601    0.000049586    0.000020774
  26   H   :    0.000054296    0.000065358    0.000032716
  27   H   :    0.000053424    0.000021561    0.000059396
  28   H   :    0.000038202    0.000026236    0.000036917
  29   H   :    0.000034847    0.000025760    0.000043972
  30   H   :    0.000004257    0.000009963   -0.000064759
  31   H   :   -0.000009123    0.000033861   -0.000054854
  32   H   :   -0.000019662    0.000017613    0.000051631
  33   H   :   -0.000016520   -0.000009378    0.000067866
  34   H   :   -0.000017344    0.000014254    0.000052656
  35   H   :   -0.000046353    0.000013552    0.000098358
  36   H   :   -0.000039808    0.000045364    0.000084784
  37   H   :   -0.000049189   -0.000010505   -0.000009768
  38   H   :   -0.000038809   -0.000034282   -0.000024120
  39   H   :   -0.000031152   -0.000040456   -0.000001755
  40   H   :   -0.000035977   -0.000033148    0.000003999
  41   H   :   -0.000026459   -0.000022663   -0.000006526

Difference to translation invariance:
           :   -0.0000000000    0.0000000000   -0.0000000000

Difference to rotation invariance:
           :    0.0000000000   -0.0000000000    0.0000000000

Norm of the Dispersion gradient    ...    0.0010504211
RMS gradient                       ...    0.0000947133
MAX gradient                       ...    0.0002759651
gCP correction                   ... done

------------------
CARTESIAN GRADIENT
------------------

   1   C   :    0.000000263    0.000001762   -0.000010689
   2   C   :   -0.000009565   -0.000025241    0.000011918
   3   O   :    0.000011372   -0.000150270    0.000094520
   4   P   :   -0.000003304    0.000004318   -0.000061659
   5   S   :   -0.000025196    0.000096007    0.000079358
   6   O   :   -0.000007743    0.000062852    0.000028290
   7   C   :   -0.000012896    0.000044195    0.000047550
   8   C   :   -0.000005687   -0.000059547   -0.000043921
   9   S   :   -0.000031179    0.000072844   -0.000163187
  10   C   :    0.000033000   -0.000019337    0.000056355
  11   S   :   -0.000039604    0.000014857    0.000104961
  12   P   :    0.000029238   -0.000065531    0.000148542
  13   S   :   -0.000002590    0.000086628   -0.000040333
  14   O   :   -0.000046377   -0.000089237   -0.000149217
  15   C   :    0.000079864   -0.000017312   -0.000059766
  16   C   :    0.000062396    0.000072035   -0.000133490
  17   O   :    0.000040823   -0.000046328    0.000000718
  18   C   :   -0.000047297    0.000012697   -0.000076285
  19   C   :   -0.000018998    0.000033674    0.000011212
  20   H   :   -0.000000062    0.000003269    0.000047793
  21   H   :   -0.000002262   -0.000081834    0.000000980
  22   H   :    0.000033305   -0.000004902   -0.000011363
  23   H   :    0.000019727    0.000020909   -0.000012008
  24   H   :    0.000006544   -0.000010392   -0.000017193
  25   H   :    0.000023630   -0.000084228    0.000008059
  26   H   :    0.000100614    0.000000580   -0.000035923
  27   H   :   -0.000027353   -0.000019395   -0.000044422
  28   H   :   -0.000008130    0.000006409   -0.000001599
  29   H   :   -0.000033472    0.000038693    0.000028617
  30   H   :    0.000043082    0.000031790    0.000000331
  31   H   :    0.000009630    0.000035769   -0.000004200
  32   H   :   -0.000102797    0.000026070   -0.000023564
  33   H   :    0.000003425   -0.000056818    0.000061498
  34   H   :   -0.000011118    0.000054164    0.000076016
  35   H   :    0.000002959    0.000016045   -0.000018136
  36   H   :   -0.000091301    0.000018875    0.000059021
  37   H   :    0.000036523    0.000000770   -0.000017474
  38   H   :    0.000003879   -0.000029161    0.000012896
  39   H   :    0.000005417   -0.000015793    0.000023006
  40   H   :   -0.000014749    0.000015107    0.000018873
  41   H   :   -0.000004011    0.000005004    0.000003915

Difference to translation invariance:
           :   -0.0000000000   -0.0000000000   -0.0000000000

Difference to rotation invariance:
           :   -0.0000866382   -0.0007341115   -0.0004223843

Norm of the Cartesian gradient     ...    0.0005689273
RMS gradient                       ...    0.0000512984
MAX gradient                       ...    0.0001631873

-------
TIMINGS
-------

Total SCF gradient time     ....       49.943 sec

Densities                   ....       0.007 sec  (  0.0%)
One electron gradient       ....       2.056 sec  (  4.1%)
RI-J Coulomb gradient       ....       9.837 sec  ( 19.7%)
XC gradient                 ....      23.695 sec  ( 47.4%)
CPCM gradient               ....       8.254 sec  ( 16.5%)
   A-Matrix (El+Nuc)        ....       0.270 sec  (  0.5%)
   Potential                ....       7.984 sec  ( 16.0%)
SMD gradient                ....       0.014 sec  (  0.0%)

Maximum memory used throughout the entire SCFGRAD-calculation: 86.6 MB

------------------------------------------------------------------------------
                              ORCA PROPERTY CALCULATIONS
------------------------------------------------------------------------------

GBWName                                 ... xtb_opt.gbw
Number of atoms                         ...     41
Number of basis functions               ...    539
Max core memory                         ...   1024 MB

Electric properties:
Dipole moment                           ... YES
Quadrupole moment                       ...  NO
Static polarizability (Dipole/Dipole)   ...  NO
Static polarizability (Dipole/Quad.)    ...  NO
Static polarizability (Quad./Quad.)     ...  NO
Static polarizability (Velocity)        ...  NO

Atomic electric properties:
Dipole moment                           ...  NO
Quadrupole moment                       ...  NO
Static polarizability                   ...  NO

Choice of electric origin               ... Center of mass
Position of electric origin             ...    -0.080353     0.030202    -0.127427

General magnetic properties:
Magnetizability                         ...  NO

EPR properties:
g-Tensor (aka g-matrix)                 ...  NO
Zero-Field splitting spin-orbit         ...  NO
Zero-field splitting spin-spin          ...  NO
Hyperfine couplings                     ...  NO (   0 nuclei)
Quadrupole couplings                    ...  NO (   0 nuclei)
Contact density                         ...  NO (   0 nuclei)

NMR properties:
Chemical shifts                         ...  NO (   0 nuclei)
Spin-rotation constants                 ...  NO (   0 nuclei)
Spin-spin couplings                     ...  NO (   0 nuclei,    0 pairs)

Choice of magnetic origin               ... GIAO
Position of magnetic origin             ...     0.000000     0.000000     0.000000

Properties with geometric perturbations:
SCF Hessian                             ...  NO
IR spectrum                             ...  NO
VCD spectrum                            ...  NO
X-ray spectroscopy properties:
SCF XES/XAS/RIXS spectra                ...  NO


-------------
DIPOLE MOMENT
-------------

Method             : SCF
Type of density    : Electron Density
Multiplicity       :   1
Irrep              :   0
Energy             : -2932.5076581927623920 Eh
Relativity type    : 
Basis              : AO
                                X                 Y                 Z
Electronic contribution:      1.385243393       8.644562862     -21.796382992
Nuclear contribution   :     -2.720656748      -9.541908816      24.040542135
                        -----------------------------------------
Total Dipole Moment    :     -1.335413354      -0.897345954       2.244159144
                        -----------------------------------------
Magnitude (a.u.)       :      2.761305642
Magnitude (Debye)      :      7.018681159



--------------------
Rotational spectrum 
--------------------
 
Rotational constants in cm-1:             0.011540             0.004978             0.004714 
Rotational constants in MHz :           345.968053           149.225989           141.310506 

Dipole components along the rotational axes: 
x,y,z [a.u.] :     1.213150    -1.944791     1.539761 
x,y,z [Debye]:     3.083582    -4.943266     3.913761 

 

Dipole moment calculation done in   0.1 sec 

Maximum memory used throughout the entire PROP-calculation: 53.2 MB

--------------------------------
SUGGESTED CITATIONS FOR THIS RUN
--------------------------------

Below you find a list of papers that are relevant to this ORCA run
We neither can nor want to force you to cite these papers, but we appreciate if you do
You receive ORCA, which is the product of decades of hard work by many enthusiastic individuals, for free
The only thing we kindly ask in return is that you cite our papers,
We deeply appreciate it, if you show your appreciation for ORCA by not just citing the generic ORCA reference.

Please note that relegating all ORCA citations to the supporting information does *not* help us.
SI sections are not indexed - citations you put there will not count into any citation statistics
But we need these citations in order to attract the funding resources that allow us to do what we are doing

Therefore, if you are a happy ORCA user, please consider citing a few of the papers listed below in the main body of your paper

In addition to the list printed below, the program has created the file xtb_opt.bibtex that contains the list in bibtex format
You can import this file easily into all common literature databanks and citation aid programs


List of essential papers. We consider these as the minimum necessary citations

  1. Neese,F.
     Software update: the ORCA program system, version 5.0
     WIRES Comput. Molec. Sci., 2022 12(1)e1606
     doi.org/10.1002/wcms.1606
  2. Grimme,S.; Hansen,A.; Ehlert,S.; Mewes,J.
     r2SCAN-3c: A 'Swiss army knife' composite electronic-structure method
     J. Chem. Phys., 2021 154 064103
     doi.org/10.1063/5.0040021

List of papers to cite with high priority. The work reported in these papers was absolutely
necessary for this run to complete.
Our perspective: the developers of density functionals and basis sets usually get cited in chemistry papers
Good! But without the algorithms to do something with them, the functionals or basis sets would not do anything.
Hence, in our opinion, the algorithm design and method developments papers are equally worthy of getting cited

  1. Neese,F.
     An improvement of the resolution of the identity approximation for the formation of the Coulomb matrix
     J. Comp. Chem., 2003 24(14)1740-1747
     doi.org/10.1002/jcc.10318
  2. Garcia-Rates,M.; Neese,F.
     Effect of the Solute Cavity on the Solvation Energy and its Derivatives within the Framework of the Gaussian Charge Scheme
     J. Comput. Chem., 2020 41 922-939
     doi.org/10.1002/jcc.26139
  3. Neese,F.
     The SHARK Integral Generation and Digestion System
     J. Comp. Chem., 2022  1-16
     doi.org/10.1002/jcc.26942
  4. Lehtola,S.; Steigemann,C.; Oliveira,M.; Marques,M.
     Recent developments in Libxc - A comprehensive library of functionals for density functional theory
     Software X, 2018 7 
     doi.org/10.1016/j.softx.2017.11.002
  5. Caldeweyher,E.; Bannwarth,C.; Grimme,S.
     Extension of the D3 dispersion coefficient model
     J. Chem. Phys., 2017 147 034112-XXXX
     doi.org/10.1063/1.4993215
  6. Caldeweyher,E.; Ehlert,S.; Hansen,A.; Neugebauer,H.; Spicher,S.; Bannwarth,C.; Grimme,S.
     A generally applicable atomic-charge dependent London dispersion correction
     J. Chem. Phys., 2019 150 154122-XXXX
     doi.org/10.1063/1.5090222
  7. Caldeweyher,E.; Mewes,J.; Ehlert,S.; Grimme,S.
     Extension and evaluation of the D4 London-dispersion model for periodic systems
     Phys. Chem. Chem. Phys., 2020 22(16)8499-8512
     doi.org/10.1039/D0CP00502A

List of suggested additional citations. These are papers that are important in the 'surrounding' of 
of this run, or papers that preceded the highly important papers. If you like your results we are grateful for a citation.

  1. Neese,F.
     The ORCA program system
     WIRES Comput. Molec. Sci., 2012 2(1)73-78
     doi.org/10.1002/wcms.81
  2. Neese,F.
     Software update: the ORCA program system, version 4.0
     WIRES Comput. Molec. Sci., 2018 8(1)1-6
     doi.org/10.1002/wcms.1327
  3. Neese,F.; Wennmohs,F.; Becker,U.; Riplinger,C.
     The ORCA quantum chemistry program package
     J. Chem. Phys., 2020 152 Art. No. L224108
     doi.org/10.1063/5.0004608

List of optional additional citations

  1. Neese,F.
     Approximate second-order SCF convergence for spin unrestricted wavefunctions
     Chem. Phys. Lett., 2000 325(1-3)93-98
     doi.org/10.1016/s0009-2614(00)00662-x

Timings for individual modules:

Sum of individual times          ...       84.365 sec (=   1.406 min)
Startup calculation              ...        3.188 sec (=   0.053 min)   3.8 %
SCF iterations                   ...       30.845 sec (=   0.514 min)  36.6 %
Property calculations            ...        0.229 sec (=   0.004 min)   0.3 %
SCF Gradient evaluation          ...       50.103 sec (=   0.835 min)  59.4 %
                             ****ORCA TERMINATED NORMALLY****
TOTAL RUN TIME: 0 days 0 hours 1 minutes 25 seconds 265 msec
  ------------------------------------------------------------------------
          * successful ORCA run, taking over control again...

         :::::::::::::::::::::::::::::::::::::::::::::::::::::
         ::                  ORCA SUMMARY                   ::
         :::::::::::::::::::::::::::::::::::::::::::::::::::::
         :: total energy           -2932.483875155848 Eh    ::
         :: gradient norm              0.000568927284 Eh/a0 ::
         :: HOMO-LUMO gap              0.000000000000 eV    ::
         :::::::::::::::::::::::::::::::::::::::::::::::::::::

           -------------------------------------------------
          |                Property Printout                |
           -------------------------------------------------
           -------------------------------------------------
          |                Geometry Summary                 |
           -------------------------------------------------

      molecular mass/u    :      384.4756129
   center of mass at/Å    :       -0.0425177       0.0160082      -0.0674987
  moments of inertia/u·Å² :        0.1460823E+04   0.3386758E+04   0.3576464E+04
rotational constants/cm⁻¹ :        0.1153982E-01   0.4977513E-02   0.4713491E-02

 * 34 selected distances

     #   Z          #   Z                                           value/Å
     1   6 C        2   6 C                                       1.5080204
     3   8 O        4  15 P                                       1.6066170
     4  15 P        5  16 S                                       1.9432152
     4  15 P        6   8 O                                       1.6053418
     7   6 C        8   6 C                                       1.5059271
     4  15 P        9  16 S                                       2.1281876 (max)
    11  16 S       12  15 P                                       2.1164143
    12  15 P       13  16 S                                       1.9477213
    12  15 P       14   8 O                                       1.6009899
    15   6 C       16   6 C                                       1.5071104
    12  15 P       17   8 O                                       1.6132039
    18   6 C       19   6 C                                       1.5062713
     1   6 C       20   1 H                                       1.0936321
     1   6 C       21   1 H                                       1.0952875
     1   6 C       22   1 H                                       1.0944272
     2   6 C       23   1 H                                       1.0924862
     2   6 C       24   1 H                                       1.0933340
     7   6 C       25   1 H                                       1.0921135 (min)
     7   6 C       26   1 H                                       1.0941204
     8   6 C       27   1 H                                       1.0933015
     8   6 C       28   1 H                                       1.0937027
     8   6 C       29   1 H                                       1.0951700
    10   6 C       30   1 H                                       1.0942186
    10   6 C       31   1 H                                       1.0938187
    15   6 C       32   1 H                                       1.0942914
    15   6 C       33   1 H                                       1.0932375
    16   6 C       34   1 H                                       1.0949058
    16   6 C       35   1 H                                       1.0946810
    16   6 C       36   1 H                                       1.0938577
    18   6 C       37   1 H                                       1.0939225
    18   6 C       38   1 H                                       1.0952503
    19   6 C       39   1 H                                       1.0935595
    19   6 C       40   1 H                                       1.0936939
    19   6 C       41   1 H                                       1.0942232

 * 4 distinct bonds (by element types)

   Z      Z             #   av. dist./Å        max./Å        min./Å
   1 H    6 C          22     1.0939652     1.0952875     1.0921135
   6 C    6 C           4     1.5068323     1.5080204     1.5059271
   8 O   15 P           4     1.6065382     1.6132039     1.6009899
  15 P   16 S           4     2.0338846     2.1281876     1.9432152


optimized geometry written to: xtbopt.coord


           -------------------------------------------------
          | TOTAL ENERGY            -2932.483875155848 Eh   |
          | GRADIENT NORM               0.000568927284 Eh/α |
           -------------------------------------------------

------------------------------------------------------------------------
 * finished run on 2025/04/10 at 14:55:33.608     
------------------------------------------------------------------------
 total:
 * wall-time:     0 d,  0 h,  8 min,  5.999 sec
 *  cpu-time:     0 d,  0 h,  0 min,  4.495 sec
 * ratio c/w:     0.009 speedup
 SCF:
 * wall-time:     0 d,  0 h,  1 min, 25.323 sec
 *  cpu-time:     0 d,  0 h,  0 min,  0.907 sec
 * ratio c/w:     0.011 speedup
 ANC optimizer:
 * wall-time:     0 d,  0 h,  6 min, 40.462 sec
 *  cpu-time:     0 d,  0 h,  0 min,  2.918 sec
 * ratio c/w:     0.007 speedup

