      -----------------------------------------------------------      
     |                   =====================                   |     
     |                           x T B                           |     
     |                   =====================                   |     
     |                         S. Grimme                         |     
     |          Mulliken Center for Theoretical Chemistry        |     
     |                    University of Bonn                     |     
      -----------------------------------------------------------      

   * xtb version 6.7.1 (edcfbbe) compiled by 'albert@albert-system' on 2024-07-22

   xtb is free software: you can redistribute it and/or modify it under
   the terms of the GNU Lesser General Public License as published by
   the Free Software Foundation, either version 3 of the License, or
   (at your option) any later version.
   
   xtb is distributed in the hope that it will be useful,
   but WITHOUT ANY WARRANTY; without even the implied warranty of
   MERCHANTABILITY or FITNESS FOR A PARTICULAR PURPOSE.  See the
   GNU Lesser General Public License for more details.
   
   Cite this work as:
   * C. Bannwarth, E. Caldeweyher, S. Ehlert, A. Hansen, P. Pracht,
     J. Seibert, S. Spicher, S. Grimme, WIREs Comput. Mol. Sci., 2020, 11,
     e01493. DOI: 10.1002/wcms.1493
   
   for GFN2-xTB:
   * C. Bannwarth, S. Ehlert and S. Grimme., J. Chem. Theory Comput., 2019,
     15, 1652-1671. DOI: 10.1021/acs.jctc.8b01176
   for GFN1-xTB:
   * S. Grimme, C. Bannwarth, P. Shushkov, J. Chem. Theory Comput., 2017,
     13, 1989-2009. DOI: 10.1021/acs.jctc.7b00118
   for GFN0-xTB:
   * P. Pracht, E. Caldeweyher, S. Ehlert, S. Grimme, ChemRxiv, 2019, preprint.
     DOI: 10.26434/chemrxiv.8326202.v1
   for GFN-FF:
   * S. Spicher and S. Grimme, Angew. Chem. Int. Ed., 2020, 59, 15665-15673.
     DOI: 10.1002/anie.202004239
   
   for ALPB and GBSA implicit solvation:
   * S. Ehlert, M. Stahn, S. Spicher, S. Grimme, J. Chem. Theory Comput.,
     2021, 17, 4250-4261. DOI: 10.1021/acs.jctc.1c00471
   
   for ddCOSMO and CPCM-X implicit solvation:
   * M. Stahn, S. Ehlert, S. Grimme, J. Phys. Chem. A,
     2023, XX, XXXX-XXXX. DOI: 10.1021/acs.jpca.3c04382
   
   for DFT-D4:
   * E. Caldeweyher, C. Bannwarth and S. Grimme, J. Chem. Phys., 2017,
     147, 034112. DOI: 10.1063/1.4993215
   * E. Caldeweyher, S. Ehlert, A. Hansen, H. Neugebauer, S. Spicher,
     C. Bannwarth and S. Grimme, J. Chem. Phys., 2019, 150, 154122.
     DOI: 10.1063/1.5090222
   * E. Caldeweyher, J.-M. Mewes, S. Ehlert and S. Grimme, Phys. Chem. Chem. Phys.
     2020, 22, 8499-8512. DOI: 10.1039/D0CP00502A
   
   for sTDA-xTB:
   * S. Grimme and C. Bannwarth, J. Chem. Phys., 2016, 145, 054103.
     DOI: 10.1063/1.4959605
   
   in the mass-spec context:
   * V. Asgeirsson, C. Bauer and S. Grimme, Chem. Sci., 2017, 8, 4879.
     DOI: 10.1039/c7sc00601b
   * J. Koopman and S. Grimme, ACS Omega 2019, 4, 12, 15120-15133.
     DOI: 10.1021/acsomega.9b02011
   
   for metadynamics refer to:
   * S. Grimme, J. Chem. Theory Comput., 2019, 155, 2847-2862
     DOI: 10.1021/acs.jctc.9b00143
   
   for SPH calculations refer to:
   * S. Spicher and S. Grimme, J. Chem. Theory Comput., 2021, 17, 1701-1714
     DOI: 10.1021/acs.jctc.0c01306
   
   for ONIOM refer to:
   * C. Plett, A. Katbashev, S. Ehlert, S. Grimme, M. Bursch,
     Phys. Chem. Chem. Phys., 2023, 25, 17860-17868. DOI: 10.1039/D3CP02178E
   
   for DIPRO refer to:
   * J. Kohn, N. Gildemeister, S. Grimme, D. Fazzi, A. Hansen,
     J. Chem. Phys., 2023, just accepted.
   
   for PTB refer to:
   * S. Grimme, M. Mueller, A. Hansen, J. Chem. Phys., 2023, 158, 124111.
     DOI: 10.1063/5.0137838
   
   with help from (in alphabetical order)
   P. Atkinson, C. Bannwarth, F. Bohle, G. Brandenburg, E. Caldeweyher
   M. Checinski, S. Dohm, S. Ehlert, S. Ehrlich, I. Gerasimov, C. Hölzer
   A. Katbashev, J. Kohn, J. Koopman, C. Lavigne, S. Lehtola, F. März, M. Müller,
   F. Musil, H. Neugebauer, J. Pisarek, C. Plett, P. Pracht, F. Pultar,
   J. Seibert, P. Shushkov, S. Spicher, M. Stahn, M. Steiner, T. Strunk,
   J. Stückrath, T. Rose, and J. Unsleber
   
 * started run on 2025/04/09 at 13:57:17.028     
   ID    Z sym.   atoms
    1    6 C      1, 2, 7, 8, 10, 15, 16, 18, 19
    2    8 O      3, 6, 14, 17
    3   15 P      4, 12
    4   16 S      5, 9, 11, 13
    5    1 H      20-41

           -------------------------------------------------
          |                Calculation Setup                |
           -------------------------------------------------

          program call               : /srv/scratch/z5358697/.xtb/bin/xtb xtb_rrho.coord --gfn2 --bhess vtight --chrg 0 --enso --norestart -I rrho-xcontrol-inp --parallel 1 --alpb water
          hostname                   : k163
          coordinate file            : xtb_rrho.coord
          omp threads                :                     1


           -------------------------------------------------
          |                 G F N 2 - x T B                 |
           -------------------------------------------------

        Reference                      10.1021/acs.jctc.8b01176
      * Hamiltonian:
        H0-scaling (s, p, d)           1.850000    2.230000    2.230000
        zeta-weighting                 0.500000
      * Dispersion:
        s8                             2.700000
        a1                             0.520000
        a2                             5.000000
        s9                             5.000000
      * Repulsion:
        kExp                           1.500000    1.000000
        rExp                           1.000000
      * Coulomb:
        alpha                          2.000000
        third order                    shell-resolved
        anisotropic                    true
        a3                             3.000000
        a5                             4.000000
        cn-shift                       1.200000
        cn-exp                         4.000000
        max-rad                        5.000000

      * Solvation model:               ALPB
        Solvent                        water
        Parameter file                 internal GFN2-xTB/ALPB
        Dielectric constant                8.0200E+01
        Reference state                gsolv [1 M gas/solution]
        Free energy shift                  1.0808E-03 Eh       6.7819E-01 kcal/mol
        Temperature                        2.9815E+02 K
        Density                            1.0000E+00 kg/L
        Solvent mass                       1.8000E+01 g/mol
        Interaction kernel             P16
        Born radius scaling (c1)           1.4744E+00
        Born radii integrator          GBOBC
        Born offset                        0.0000E+00 a0       0.0000E+00 AA
        H-bond correction              true
        Ion screening                  false
        Surface tension                    1.0000E-05 Eh       1.5569E+01 dyn/cm
        Grid points                               974 per atom

          ...................................................
          :                      SETUP                      :
          :.................................................:
          :  # basis functions                 134          :
          :  # atomic orbitals                 128          :
          :  # shells                           66          :
          :  # electrons                       116          :
          :  max. iterations                   250          :
          :  Hamiltonian                  GFN2-xTB          :
          :  restarted?                      false          :
          :  GBSA solvation                   true          :
          :  PC potential                    false          :
          :  electronic temp.          300.0000000     K    :
          :  accuracy                    1.0000000          :
          :  -> integral cutoff          0.2500000E+02      :
          :  -> integral neglect         0.1000000E-07      :
          :  -> SCF convergence          0.1000000E-05 Eh   :
          :  -> wf. convergence          0.1000000E-03 e    :
          :  Broyden damping             0.4000000          :
          :  net charge                          0          :
          :  unpaired electrons                  0          :
          ...................................................

 iter      E             dE          RMSdq      gap      omega  full diag
   1    -65.4117065 -0.654117E+02  0.645E+00    4.24       0.0  T
   2    -65.5360110 -0.124304E+00  0.360E+00    3.59       1.0  T
   3    -65.5555429 -0.195319E-01  0.107E+00    3.12       1.0  T
   4    -65.5584967 -0.295380E-02  0.498E-01    3.07       1.0  T
   5    -65.5591734 -0.676701E-03  0.251E-01    3.12       1.0  T
   6    -65.5593550 -0.181597E-03  0.120E-01    3.12       1.0  T
   7    -65.5594044 -0.493640E-04  0.425E-02    3.13       1.0  T
   8    -65.5594079 -0.357336E-05  0.180E-02    3.13       1.0  T
   9    -65.5594088 -0.852475E-06  0.528E-03    3.13       3.0  T
  10    -65.5594088 -0.475436E-07  0.285E-03    3.13       5.5  T
  11    -65.5594089 -0.320698E-07  0.851E-04    3.13      18.3  T
  12    -65.5594089 -0.132694E-08  0.418E-04    3.13      37.4  T

   *** convergence criteria satisfied after 12 iterations ***

         #    Occupation            Energy/Eh            Energy/eV
      -------------------------------------------------------------
         1        2.0000           -0.7620866             -20.7374
       ...           ...                  ...                  ...
        52        2.0000           -0.4454433             -12.1211
        53        2.0000           -0.4199314             -11.4269
        54        2.0000           -0.4140870             -11.2679
        55        2.0000           -0.3961259             -10.7791
        56        2.0000           -0.3949924             -10.7483
        57        2.0000           -0.3941168             -10.7245
        58        2.0000           -0.3907802             -10.6337 (HOMO)
        59                         -0.2757454              -7.5034 (LUMO)
        60                         -0.2498504              -6.7988
        61                         -0.2252783              -6.1301
        62                         -0.1943029              -5.2873
        63                         -0.1827369              -4.9725
       ...                                ...                  ...
       128                          1.2727124              34.6323
      -------------------------------------------------------------
                  HL-Gap            0.1150349 Eh            3.1303 eV
             Fermi-level           -0.3332628 Eh           -9.0685 eV

 SCC (total)                   0 d,  0 h,  0 min,  0.091 sec
 SCC setup                      ...        0 min,  0.002 sec (  2.661%)
 Dispersion                     ...        0 min,  0.000 sec (  0.310%)
 classical contributions        ...        0 min,  0.000 sec (  0.060%)
 integral evaluation            ...        0 min,  0.044 sec ( 48.590%)
 iterations                     ...        0 min,  0.024 sec ( 26.415%)
 molecular gradient             ...        0 min,  0.020 sec ( 21.731%)
 printout                       ...        0 min,  0.000 sec (  0.218%)

         :::::::::::::::::::::::::::::::::::::::::::::::::::::
         ::                     SUMMARY                     ::
         :::::::::::::::::::::::::::::::::::::::::::::::::::::
         :: total energy             -65.018867284049 Eh    ::
         :: total w/o Gsasa/hb       -65.021136778347 Eh    ::
         :: gradient norm              0.049903073532 Eh/a0 ::
         :: HOMO-LUMO gap              3.130257905114 eV    ::
         ::.................................................::
         :: SCC energy               -65.558369655095 Eh    ::
         :: -> isotropic ES            0.127738939116 Eh    ::
         :: -> anisotropic ES         -0.013786672306 Eh    ::
         :: -> anisotropic XC          0.031455295687 Eh    ::
         :: -> dispersion             -0.051430058787 Eh    ::
         :: -> Gsolv                  -0.022629710920 Eh    ::
         ::    -> Gelec               -0.024899205218 Eh    ::
         ::    -> Gsasa                0.005179301911 Eh    ::
         ::    -> Ghb                 -0.003990567311 Eh    ::
         ::    -> Gshift               0.001080759698 Eh    ::
         :: repulsion energy           0.539502371046 Eh    ::
         :: add. restraining           0.000000000000 Eh    ::
         :: total charge               0.000000000000 e     ::
         :::::::::::::::::::::::::::::::::::::::::::::::::::::

metadynamics with 1 initial structures loaded
           -------------------------------------------------
          |           Optimal kpush determination           |
           -------------------------------------------------
      ----------------------------------------------------------- 
     |                   =====================                   |
     |                        A N C O P T                        |
     |                   =====================                   |
     |               Approximate Normal Coordinate               |
     |                Rational Function Optimizer                |
      ----------------------------------------------------------- 
target rmsd / Å         0.100000
unbiased initial rmsd   0.203350
 
iter. min.        max.        rmsd       kpush
      ----------------------------------------------------------- 
     |                   =====================                   |
     |                        A N C O P T                        |
     |                   =====================                   |
     |               Approximate Normal Coordinate               |
     |                Rational Function Optimizer                |
      ----------------------------------------------------------- 
 1    0.000000    1.863636    0.015110   -0.931818
      ----------------------------------------------------------- 
     |                   =====================                   |
     |                        A N C O P T                        |
     |                   =====================                   |
     |               Approximate Normal Coordinate               |
     |                Rational Function Optimizer                |
      ----------------------------------------------------------- 
 2    0.000000    0.931818    0.021114   -0.465909
      ----------------------------------------------------------- 
     |                   =====================                   |
     |                        A N C O P T                        |
     |                   =====================                   |
     |               Approximate Normal Coordinate               |
     |                Rational Function Optimizer                |
      ----------------------------------------------------------- 
 3    0.000000    0.465909    0.030352   -0.232955
      ----------------------------------------------------------- 
     |                   =====================                   |
     |                        A N C O P T                        |
     |                   =====================                   |
     |               Approximate Normal Coordinate               |
     |                Rational Function Optimizer                |
      ----------------------------------------------------------- 
 4    0.000000    0.232955    0.044184   -0.116477
      ----------------------------------------------------------- 
     |                   =====================                   |
     |                        A N C O P T                        |
     |                   =====================                   |
     |               Approximate Normal Coordinate               |
     |                Rational Function Optimizer                |
      ----------------------------------------------------------- 
 5    0.000000    0.116477    0.063497   -0.058239
      ----------------------------------------------------------- 
     |                   =====================                   |
     |                        A N C O P T                        |
     |                   =====================                   |
     |               Approximate Normal Coordinate               |
     |                Rational Function Optimizer                |
      ----------------------------------------------------------- 
 6    0.000000    0.058239    0.089105   -0.029119
      ----------------------------------------------------------- 
     |                   =====================                   |
     |                        A N C O P T                        |
     |                   =====================                   |
     |               Approximate Normal Coordinate               |
     |                Rational Function Optimizer                |
      ----------------------------------------------------------- 
 7    0.000000    0.029119    0.118838   -0.014560
      ----------------------------------------------------------- 
     |                   =====================                   |
     |                        A N C O P T                        |
     |                   =====================                   |
     |               Approximate Normal Coordinate               |
     |                Rational Function Optimizer                |
      ----------------------------------------------------------- 
 8    0.014560    0.029119    0.101297   -0.021839
      ----------------------------------------------------------- 
     |                   =====================                   |
     |                        A N C O P T                        |
     |                   =====================                   |
     |               Approximate Normal Coordinate               |
     |                Rational Function Optimizer                |
      ----------------------------------------------------------- 
 9    0.021839    0.029119    0.094734   -0.025479
      ----------------------------------------------------------- 
     |                   =====================                   |
     |                        A N C O P T                        |
     |                   =====================                   |
     |               Approximate Normal Coordinate               |
     |                Rational Function Optimizer                |
      ----------------------------------------------------------- 
10    0.021839    0.025479    0.097874   -0.023659
final kpush: -0.023659
           -------------------------------------------------
          |            Biased Numerical Hessian             |
           -------------------------------------------------
kpush                :  -0.02366
alpha                :   1.00000
step length          :   0.00500
SCC accuracy         :   0.30000
Hessian scale factor :   1.00000
frozen atoms in %    :   0.00000    0
RMS gradient         :   0.00007
estimated CPU  time      0.18 min
estimated wall time      0.18 min

writing file <hessian>.

 projected vibrational frequencies (cm⁻¹)
eigval :       -0.00    -0.00    -0.00     0.00     0.00     0.00
eigval :       49.31    54.52    52.57    62.37    74.14    64.55
eigval :       66.42    66.05    73.49    70.78    73.85    81.58
eigval :       85.32   120.72   117.53   134.35   143.51   172.88
eigval :      163.62   169.51   191.14   224.64   214.62   239.78
eigval :      219.88   231.62   233.50   263.68   278.82   305.30
eigval :      312.52   333.27   371.45   372.56   412.10   425.29
eigval :      425.24   475.83   480.85   607.01   636.94   671.89
eigval :      690.43   724.03   756.94   759.14   778.84   803.07
eigval :      814.31   817.12   822.31   823.67   915.50   916.96
eigval :      933.96   936.24  1034.59  1036.77  1044.40  1053.18
eigval :     1091.25  1092.46  1087.23  1095.64  1100.51  1126.89
eigval :     1129.59  1132.54  1132.91  1166.78  1229.53  1235.02
eigval :     1238.26  1243.75  1302.91  1303.19  1311.89  1312.89
eigval :     1353.54  1391.81  1393.55  1393.17  1395.17  1432.51
eigval :     1436.34  1438.40  1449.28  1453.40  1460.74  1460.78
eigval :     1464.00  1474.87  1477.46  1479.74  1483.78  2928.77
eigval :     2932.85  2937.31  2947.09  2955.75  2961.20  2968.77
eigval :     2970.11  2976.95  2977.18  3026.30  3028.70  3031.01
eigval :     3038.53  3045.12  3049.64  3050.17  3053.79  3055.38
eigval :     3058.39  3060.05  3063.47
           -------------------------------------------------
          |                Property Printout                |
           -------------------------------------------------

    * Orbital Energies and Occupations

         #    Occupation            Energy/Eh            Energy/eV
      -------------------------------------------------------------
         1        2.0000           -0.7673111             -20.8796
       ...           ...                  ...                  ...
        46        2.0000           -0.4662521             -12.6874
        47        2.0000           -0.4601989             -12.5226
        48        2.0000           -0.4582667             -12.4701
        49        2.0000           -0.4535042             -12.3405
        50        2.0000           -0.4521168             -12.3027
        51        2.0000           -0.4507633             -12.2659
        52        2.0000           -0.4446352             -12.0991
        53        2.0000           -0.4209259             -11.4540
        54        2.0000           -0.4122867             -11.2189
        55        2.0000           -0.3964136             -10.7870
        56        2.0000           -0.3950747             -10.7505
        57        2.0000           -0.3937765             -10.7152
        58        2.0000           -0.3902670             -10.6197 (HOMO)
        59                         -0.2766638              -7.5284 (LUMO)
        60                         -0.2536278              -6.9016
        61                         -0.2190533              -5.9607
        62                         -0.1882084              -5.1214
        63                         -0.1821268              -4.9559
        64                         -0.1799731              -4.8973
        65                         -0.1675038              -4.5580
        66                         -0.1573044              -4.2805
        67                         -0.1357203              -3.6931
        68                         -0.1266923              -3.4475
        69                         -0.0533727              -1.4523
       ...                                ...                  ...
       128                          1.2786167              34.7929
      -------------------------------------------------------------
                  HL-Gap            0.1136031 Eh            3.0913 eV
             Fermi-level           -0.3334654 Eh           -9.0741 eV

     #   Z          covCN         q      C6AA      α(0)
     1   6 C        3.751    -0.132    23.097     6.854
     2   6 C        3.844     0.073    19.335     6.255
     3   8 O        1.655    -0.257    18.270     5.770
     4  15 P        3.845     0.373   144.711    21.609
     5  16 S        0.926    -0.451   159.032    21.330
     6   8 O        1.654    -0.260    18.321     5.778
     7   6 C        3.863     0.083    19.160     6.225
     8   6 C        3.751    -0.126    22.975     6.836
     9  16 S        2.006    -0.145   147.180    20.419
    10   6 C        3.821     0.040    19.880     6.345
    11  16 S        2.010    -0.153   147.487    20.440
    12  15 P        3.818     0.389   144.094    21.563
    13  16 S        0.926    -0.462   159.593    21.368
    14   8 O        1.657    -0.272    18.533     5.812
    15   6 C        3.846     0.076    19.285     6.247
    16   6 C        3.751    -0.128    23.022     6.843
    17   8 O        1.655    -0.256    18.259     5.768
    18   6 C        3.834     0.078    19.252     6.243
    19   6 C        3.751    -0.129    23.045     6.846
    20   1 H        0.925     0.086     1.914     2.163
    21   1 H        0.925     0.075     2.032     2.229
    22   1 H        0.925     0.056     2.250     2.346
    23   1 H        0.924     0.064     2.153     2.294
    24   1 H        0.924     0.096     1.820     2.110
    25   1 H        0.924     0.062     2.179     2.308
    26   1 H        0.924     0.078     2.004     2.214
    27   1 H        0.925     0.088     1.894     2.152
    28   1 H        0.925     0.072     2.059     2.244
    29   1 H        0.925     0.060     2.198     2.319
    30   1 H        0.925     0.096     1.817     2.108
    31   1 H        0.925     0.092     1.856     2.131
    32   1 H        0.924     0.070     2.083     2.257
    33   1 H        0.924     0.091     1.868     2.137
    34   1 H        0.925     0.085     1.928     2.171
    35   1 H        0.925     0.066     2.128     2.281
    36   1 H        0.925     0.056     2.250     2.346
    37   1 H        0.924     0.066     2.133     2.284
    38   1 H        0.924     0.081     1.965     2.192
    39   1 H        0.925     0.073     2.057     2.243
    40   1 H        0.925     0.058     2.222     2.331
    41   1 H        0.925     0.085     1.928     2.172

 Mol. C6AA /au·bohr⁶  :      26400.005393
 Mol. C8AA /au·bohr⁸  :     862481.095727
 Mol. α(0) /au        :        257.581836


Wiberg/Mayer (AO) data.
largest (>0.10) Wiberg bond orders for each atom

 ---------------------------------------------------------------------------
     #   Z sym  total        # sym  WBO       # sym  WBO       # sym  WBO
 ---------------------------------------------------------------------------
     1   6 C    3.986 --     2 C    1.023    21 H    0.981    22 H    0.978
                            20 H    0.975
     2   6 C    3.885 --     1 C    1.023    23 H    0.969    24 H    0.963
                             3 O    0.883
     3   8 O    2.411 --     4 P    1.330     2 C    0.883
     4  15 P    5.302 --     5 S    1.554     6 O    1.341     3 O    1.330
                             9 S    0.942
     5  16 S    1.866 --     4 P    1.554     9 S    0.134
     6   8 O    2.399 --     4 P    1.341     7 C    0.865
     7   6 C    3.887 --     8 C    1.021    26 H    0.970    25 H    0.962
                             6 O    0.865
     8   6 C    3.984 --     7 C    1.021    28 H    0.982    29 H    0.981
                            27 H    0.974
     9  16 S    2.266 --    10 C    0.987     4 P    0.942     5 S    0.134
    10   6 C    3.952 --    11 S    0.989     9 S    0.987    31 H    0.954
                            30 H    0.953
    11  16 S    2.280 --    10 C    0.989    12 P    0.976    13 S    0.135
    12  15 P    5.267 --    13 S    1.511    17 O    1.318    14 O    1.314
                            11 S    0.976
    13  16 S    1.850 --    12 P    1.511    11 S    0.135
    14   8 O    2.385 --    12 P    1.314    15 C    0.872
    15   6 C    3.882 --    16 C    1.022    32 H    0.966    33 H    0.965
                            14 O    0.872
    16   6 C    3.987 --    15 C    1.022    35 H    0.984    36 H    0.980
                            34 H    0.975
    17   8 O    2.412 --    12 P    1.318    18 C    0.883
    18   6 C    3.887 --    19 C    1.020    38 H    0.965    37 H    0.963
                            17 O    0.883
    19   6 C    3.983 --    18 C    1.020    39 H    0.982    40 H    0.980
                            41 H    0.975
    20   1 H    0.992 --     1 C    0.975
    21   1 H    0.994 --     1 C    0.981
    22   1 H    0.997 --     1 C    0.978
    23   1 H    0.996 --     2 C    0.969
    24   1 H    0.990 --     2 C    0.963
    25   1 H    0.996 --     7 C    0.962
    26   1 H    0.994 --     7 C    0.970
    27   1 H    0.990 --     8 C    0.974
    28   1 H    0.995 --     8 C    0.982
    29   1 H    0.996 --     8 C    0.981
    30   1 H    0.990 --    10 C    0.953
    31   1 H    0.991 --    10 C    0.954
    32   1 H    0.995 --    15 C    0.966
    33   1 H    0.992 --    15 C    0.965
    34   1 H    0.992 --    16 C    0.975
    35   1 H    0.996 --    16 C    0.984
    36   1 H    0.997 --    16 C    0.980
    37   1 H    0.996 --    18 C    0.963
    38   1 H    0.993 --    18 C    0.965
    39   1 H    0.995 --    19 C    0.982
    40   1 H    0.996 --    19 C    0.980
    41   1 H    0.992 --    19 C    0.975
 ---------------------------------------------------------------------------

Topologies differ in total number of bonds
Writing topology from bond orders to xtbtopo.mol

molecular dipole:
                 x           y           z       tot (Debye)
 q only:       -1.128      -3.552       1.855
   full:       -0.980      -3.276       2.225      10.369
molecular quadrupole (traceless):
                xx          xy          yy          xz          yz          zz
 q only:        2.970     -16.676      -3.203     -27.108       1.091       0.234
  q+dip:        0.945     -20.354      -1.631     -22.812      -1.024       0.686
   full:        2.436     -19.882      -2.180     -24.400      -0.451      -0.256

           -------------------------------------------------
          |                Geometry Summary                 |
           -------------------------------------------------

      molecular mass/u    :      384.4756129
   center of mass at/Å    :       -0.0011361       0.0079178      -0.0170958
  moments of inertia/u·Å² :        0.1214027E+04   0.3755277E+04   0.3787734E+04
rotational constants/cm⁻¹ :        0.1388571E-01   0.4489051E-02   0.4450585E-02

 * 38 selected distances

     #   Z          #   Z                                           value/Å
     1   6 C        2   6 C                                       1.5146187
     2   6 C        3   8 O                                       1.4403065
     3   8 O        4  15 P                                       1.5905136
     4  15 P        5  16 S                                       1.9526989
     4  15 P        6   8 O                                       1.5770919
     6   8 O        7   6 C                                       1.4494531
     7   6 C        8   6 C                                       1.5140657
     4  15 P        9  16 S                                       2.1386827 (max)
    11  16 S       12  15 P                                       2.1163532
    12  15 P       13  16 S                                       1.9633505
    12  15 P       14   8 O                                       1.5852444
    14   8 O       15   6 C                                       1.4458581
    15   6 C       16   6 C                                       1.5163162
    12  15 P       17   8 O                                       1.5937324
    17   8 O       18   6 C                                       1.4393339
    18   6 C       19   6 C                                       1.5159205
     1   6 C       20   1 H                                       1.0856997
     1   6 C       21   1 H                                       1.0867098
     1   6 C       22   1 H                                       1.0886380
     2   6 C       23   1 H                                       1.0942108
     2   6 C       24   1 H                                       1.0912412
     7   6 C       25   1 H                                       1.0939943
     7   6 C       26   1 H                                       1.0915930
     8   6 C       27   1 H                                       1.0852523
     8   6 C       28   1 H                                       1.0860813
     8   6 C       29   1 H                                       1.0877465
    10   6 C       30   1 H                                       1.0906326
    10   6 C       31   1 H                                       1.0905571
    15   6 C       32   1 H                                       1.0927553
    15   6 C       33   1 H                                       1.0915173
    16   6 C       34   1 H                                       1.0859360
    16   6 C       35   1 H                                       1.0867445
    16   6 C       36   1 H                                       1.0883346
    18   6 C       37   1 H                                       1.0939829
    18   6 C       38   1 H                                       1.0908603
    19   6 C       39   1 H                                       1.0867942
    19   6 C       40   1 H                                       1.0884697
    19   6 C       41   1 H                                       1.0851300 (min)

 * 5 distinct bonds (by element types)

   Z      Z             #   av. dist./Å        max./Å        min./Å
   1 H    6 C          22     1.0892219     1.0942108     1.0851300
   6 C    6 C           4     1.5152303     1.5163162     1.5140657
   6 C    8 O           4     1.4437379     1.4494531     1.4393339
   8 O   15 P           4     1.5866456     1.5937324     1.5770919
  15 P   16 S           4     2.0427713     2.1386827     1.9526989

           -------------------------------------------------
          |               Frequency Printout                |
           -------------------------------------------------
 projected vibrational frequencies (cm⁻¹)
eigval :       -0.00    -0.00    -0.00     0.00     0.00     0.00
eigval :       49.31    54.52    52.57    62.37    74.14    64.55
eigval :       66.42    66.05    73.49    70.78    73.85    81.58
eigval :       85.32   120.72   117.53   134.35   143.51   172.88
eigval :      163.62   169.51   191.14   224.64   214.62   239.78
eigval :      219.88   231.62   233.50   263.68   278.82   305.30
eigval :      312.52   333.27   371.45   372.56   412.10   425.29
eigval :      425.24   475.83   480.85   607.01   636.94   671.89
eigval :      690.43   724.03   756.94   759.14   778.84   803.07
eigval :      814.31   817.12   822.31   823.67   915.50   916.96
eigval :      933.96   936.24  1034.59  1036.77  1044.40  1053.18
eigval :     1091.25  1092.46  1087.23  1095.64  1100.51  1126.89
eigval :     1129.59  1132.54  1132.91  1166.78  1229.53  1235.02
eigval :     1238.26  1243.75  1302.91  1303.19  1311.89  1312.89
eigval :     1353.54  1391.81  1393.55  1393.17  1395.17  1432.51
eigval :     1436.34  1438.40  1449.28  1453.40  1460.74  1460.78
eigval :     1464.00  1474.87  1477.46  1479.74  1483.78  2928.77
eigval :     2932.85  2937.31  2947.09  2955.75  2961.20  2968.77
eigval :     2970.11  2976.95  2977.18  3026.30  3028.70  3031.01
eigval :     3038.53  3045.12  3049.64  3050.17  3053.79  3055.38
eigval :     3058.39  3060.05  3063.47
 reduced masses (amu)
   1: 16.75   2: 17.46   3: 18.94   4: 22.57   5: 22.55   6: 21.17   7: 22.67   8: 23.43
   9: 17.17  10: 22.34  11: 28.66  12: 16.50  13: 13.95  14: 12.37  15: 13.15  16: 10.88
  17: 10.76  18: 12.57  19: 12.80  20: 13.78  21: 11.75  22: 16.73  23: 19.08  24: 22.22
  25: 15.85  26: 15.49  27: 18.00  28: 18.86  29:  8.36  30: 12.91  31:  5.63  32:  6.53
  33:  5.29  34: 10.78  35: 14.06  36: 15.69  37: 16.75  38: 21.09  39: 17.71  40: 17.59
  41: 14.16  42: 23.03  43: 16.78  44: 20.08  45: 19.75  46: 24.26  47: 24.06  48: 18.41
  49: 16.72  50: 19.63  51: 22.76  52: 22.48  53: 18.26  54:  5.80  55:  2.98  56:  2.30
  57:  2.85  58:  2.78  59: 12.99  60: 13.78  61: 11.89  62: 12.17  63:  8.18  64:  8.72
  65:  9.35  66:  9.37  67:  7.29  68:  7.71  69:  2.21  70:  7.61  71:  7.84  72:  4.77
  73:  5.16  74:  5.30  75:  5.26  76:  2.32  77:  2.37  78:  2.35  79:  2.28  80:  2.24
  81:  3.10  82:  3.10  83:  3.04  84:  2.98  85:  1.75  86:  3.09  87:  3.10  88:  3.09
  89:  3.05  90:  1.92  91:  1.95  92:  1.93  93:  1.89  94:  1.49  95:  1.50  96:  1.49
  97:  1.50  98:  1.55  99:  1.57 100:  1.57 101:  1.57 102:  1.80 103:  1.74 104:  1.75
 105:  1.76 106:  1.47 107:  1.66 108:  2.05 109:  1.72 110:  1.73 111:  1.72 112:  1.76
 113:  1.74 114:  1.79 115:  1.76 116:  1.69 117:  1.62 118:  1.59 119:  1.79 120:  1.49
 121:  1.79 122:  1.91 123:  1.74
 IR intensities (km·mol⁻¹)
   1:  2.80   2:  0.77   3:  0.55   4:  0.59   5:  0.03   6:  0.08   7:  3.92   8:  1.26
   9:  0.16  10:  2.33  11:  1.73  12:  5.81  13:  2.72  14:  4.16  15:  4.28  16:  0.30
  17:  0.37  18:  0.67  19:  0.34  20:  0.86  21:  7.61  22:  9.89  23:  5.84  24: 10.95
  25:  6.65  26: 15.35  27: 27.90  28: 12.75  29: 10.16  30: 16.03  31:  4.76  32:  5.85
  33:  2.30  34:  6.87  35:  0.32  36:  3.86  37:  8.14  38: 15.70  39:  9.09  40:  6.48
  41: 22.26  42:105.36  43: 73.04  44:183.06  45: 57.48  46:148.13  47:134.37  48:  7.90
  49: 31.06  50:240.49  51:285.13  52:238.74  53:146.15  54: 12.84  55:  0.93  56:  3.46
  57:  1.94  58:  2.26  59:398.80  60:271.13  61:258.16  62: 45.45  63:112.00  64:157.35
  65:177.98  66:159.04  67: 10.96  68: 10.87  69:  0.29  70: 10.65  71: 17.73  72: 21.93
  73: 14.40  74: 14.98  75: 19.15  76: 45.76  77:  1.19  78:  3.07  79:  3.35  80:  5.55
  81:  6.40  82:  2.99  83:  4.91  84:  0.78  85:  6.11  86: 19.17  87: 20.34  88:  0.08
  89: 16.62  90:  4.14  91:  6.80  92:  2.44  93:  2.92  94:  4.87  95:  3.23  96: 15.27
  97:  7.78  98:  6.80  99:  1.59 100:  0.53 101:  3.56 102: 22.79 103: 29.34 104: 15.49
 105: 15.12 106:  0.30 107: 20.09 108: 24.00 109: 11.58 110: 11.76 111: 12.58 112: 52.85
 113: 37.40 114: 39.46 115: 30.93 116: 17.29 117: 16.49 118: 18.58 119: 15.23 120: 13.41
 121: 11.56 122: 12.28 123:  6.85
 Raman intensities (Ä⁴*amu⁻¹)
   1:  0.00   2:  0.00   3:  0.00   4:  0.00   5:  0.00   6:  0.00   7:  0.00   8:  0.00
   9:  0.00  10:  0.00  11:  0.00  12:  0.00  13:  0.00  14:  0.00  15:  0.00  16:  0.00
  17:  0.00  18:  0.00  19:  0.00  20:  0.00  21:  0.00  22:  0.00  23:  0.00  24:  0.00
  25:  0.00  26:  0.00  27:  0.00  28:  0.00  29:  0.00  30:  0.00  31:  0.00  32:  0.00
  33:  0.00  34:  0.00  35:  0.00  36:  0.00  37:  0.00  38:  0.00  39:  0.00  40:  0.00
  41:  0.00  42:  0.00  43:  0.00  44:  0.00  45:  0.00  46:  0.00  47:  0.00  48:  0.00
  49:  0.00  50:  0.00  51:  0.00  52:  0.00  53:  0.00  54:  0.00  55:  0.00  56:  0.00
  57:  0.00  58:  0.00  59:  0.00  60:  0.00  61:  0.00  62:  0.00  63:  0.00  64:  0.00
  65:  0.00  66:  0.00  67:  0.00  68:  0.00  69:  0.00  70:  0.00  71:  0.00  72:  0.00
  73:  0.00  74:  0.00  75:  0.00  76:  0.00  77:  0.00  78:  0.00  79:  0.00  80:  0.00
  81:  0.00  82:  0.00  83:  0.00  84:  0.00  85:  0.00  86:  0.00  87:  0.00  88:  0.00
  89:  0.00  90:  0.00  91:  0.00  92:  0.00  93:  0.00  94:  0.00  95:  0.00  96:  0.00
  97:  0.00  98:  0.00  99:  0.00 100:  0.00 101:  0.00 102:  0.00 103:  0.00 104:  0.00
 105:  0.00 106:  0.00 107:  0.00 108:  0.00 109:  0.00 110:  0.00 111:  0.00 112:  0.00
 113:  0.00 114:  0.00 115:  0.00 116:  0.00 117:  0.00 118:  0.00 119:  0.00 120:  0.00
 121:  0.00 122:  0.00 123:  0.00
 output can be read by thermo (or use thermo option).
 writing <g98.out> molden fake output.
 recommended (thermochemical) frequency scaling factor: 1.0
           -------------------------------------------------
          |             Thermodynamic Functions             |
           -------------------------------------------------

Refinement of some symmetry elements was terminated before convergence was reached.
Some symmetry elements may remain unidentified.
Molecule has no symmetry elements
It seems to be the C1 point group
c1  symmetry found (for desy threshold:  0.10E+00) used in thermo

          ...................................................
          :                      SETUP                      :
          :.................................................:
          :  # frequencies                         117      :
          :  # imaginary freq.                       0      :
          :  linear?                             false      :
          :  only rotor calc.                    false      :
          :  symmetry                               c1      :
          :  rotational number                       1      :
          :  scaling factor                  1.0000000      :
          :  rotor cutoff                    0.0000000 cm⁻¹ :
          :  imag. cutoff                 -100.0000000 cm⁻¹ :
          :.................................................:

    mode    ω/cm⁻¹     T·S(HO)/kcal·mol⁻¹    T·S(FR)/kcal·mol⁻¹   T·S(vib)
   ------------------------------------------------------------------------
       1     49.31    -1.44455 (100.00%)    -1.06066 (  0.00%)    -1.44455
       2     54.52    -1.38531 (100.00%)    -1.03089 (  0.00%)    -1.38531
       3     52.57    -1.40681 (100.00%)    -1.04170 (  0.00%)    -1.40681
       4     62.37    -1.30615 (100.00%)    -0.99105 (  0.00%)    -1.30615
       5     74.14    -1.20458 (100.00%)    -0.93981 (  0.00%)    -1.20458
       6     64.55    -1.28596 (100.00%)    -0.98088 (  0.00%)    -1.28596
       7     66.42    -1.26911 (100.00%)    -0.97238 (  0.00%)    -1.26911
       8     66.05    -1.27243 (100.00%)    -0.97405 (  0.00%)    -1.27243
       9     73.49    -1.20977 (100.00%)    -0.94243 (  0.00%)    -1.20977
      10     70.78    -1.23185 (100.00%)    -0.95358 (  0.00%)    -1.23185
      11     73.85    -1.20692 (100.00%)    -0.94099 (  0.00%)    -1.20692
      12     81.58    -1.14866 (100.00%)    -0.91152 (  0.00%)    -1.14866
      13     85.32    -1.12241 (100.00%)    -0.89822 (  0.00%)    -1.12241
      14    120.72    -0.92094 (100.00%)    -0.79542 (  0.00%)    -0.92094
      15    117.53    -0.93637 (100.00%)    -0.80335 (  0.00%)    -0.93637
      16    134.35    -0.85950 (100.00%)    -0.76372 (  0.00%)    -0.85950
      17    143.51    -0.82186 (100.00%)    -0.74419 (  0.00%)    -0.82186
      18    172.88    -0.71674 (100.00%)    -0.68903 (  0.00%)    -0.71674
      19    163.62    -0.74760 (100.00%)    -0.70533 (  0.00%)    -0.74760
      20    169.51    -0.72776 (100.00%)    -0.69487 (  0.00%)    -0.72776
      21    191.14    -0.66092 (100.00%)    -0.65928 (  0.00%)    -0.66092
      22    224.64    -0.57286 (100.00%)    -0.61145 (  0.00%)    -0.57286
      23    214.62    -0.59750 (100.00%)    -0.62497 (  0.00%)    -0.59750
      24    239.78    -0.53801 (100.00%)    -0.59212 (  0.00%)    -0.53801
      25    219.88    -0.58440 (100.00%)    -0.61779 (  0.00%)    -0.58440
      26    231.62    -0.55646 (100.00%)    -0.60239 (  0.00%)    -0.55646
      27    233.50    -0.55213 (100.00%)    -0.59998 (  0.00%)    -0.55213
      28    263.68    -0.48816 (100.00%)    -0.56398 (  0.00%)    -0.48816
      29    278.82    -0.45942 (100.00%)    -0.54744 (  0.00%)    -0.45942
   ------------------------------------------------------------------------

   temp. (K)  partition function   enthalpy   heat capacity  entropy
                                   cal/mol     cal/K/mol   cal/K/mol   J/K/mol
 298.15  VIB  0.898E+12            15577.670     88.414    106.944
         ROT  0.100E+08              888.752      2.981     35.019
         INT  0.901E+19            16466.422     91.395    141.963
         TR   0.729E+28             1481.254      4.968     43.712
         TOT                       17947.6761    96.3630   185.6758   776.8674

       T/K    H(0)-H(T)+PV         H(T)/Eh          T*S/Eh         G(T)/Eh
   ------------------------------------------------------------------------
    298.15    0.286014E-01    0.341564E+00    0.882205E-01    0.253344E+00
   ------------------------------------------------------------------------

         :::::::::::::::::::::::::::::::::::::::::::::::::::::
         ::                  THERMODYNAMIC                  ::
         :::::::::::::::::::::::::::::::::::::::::::::::::::::
         :: total free energy         -64.795390538409 Eh   ::
         ::.................................................::
         :: total energy              -65.048734173389 Eh   ::
         :: zero point energy           0.312962738313 Eh   ::
         :: G(RRHO) w/o ZPVE           -0.059619103333 Eh   ::
         :: G(RRHO) contrib.            0.253343634980 Eh   ::
         :::::::::::::::::::::::::::::::::::::::::::::::::::::

optimized geometry written to: xtbopt.coord


           -------------------------------------------------
          | TOTAL ENERGY              -65.048734173389 Eh   |
          | TOTAL ENTHALPY            -64.707169992710 Eh   |
          | TOTAL FREE ENERGY         -64.795390538409 Eh   |
          | GRADIENT NORM               0.000065708195 Eh/α |
          | HOMO-LUMO GAP               3.091298689646 eV   |
           -------------------------------------------------

------------------------------------------------------------------------
 * finished run on 2025/04/09 at 13:57:35.744     
------------------------------------------------------------------------
 total:
 * wall-time:     0 d,  0 h,  0 min, 18.715 sec
 *  cpu-time:     0 d,  0 h,  0 min, 18.443 sec
 * ratio c/w:     0.985 speedup
 SCF:
 * wall-time:     0 d,  0 h,  0 min,  0.091 sec
 *  cpu-time:     0 d,  0 h,  0 min,  0.054 sec
 * ratio c/w:     0.596 speedup
 analytical hessian:
 * wall-time:     0 d,  0 h,  0 min,  9.963 sec
 *  cpu-time:     0 d,  0 h,  0 min,  9.916 sec
 * ratio c/w:     0.995 speedup

