      -----------------------------------------------------------      
     |                   =====================                   |     
     |                           x T B                           |     
     |                   =====================                   |     
     |                         S. Grimme                         |     
     |          Mulliken Center for Theoretical Chemistry        |     
     |                    University of Bonn                     |     
      -----------------------------------------------------------      

   * xtb version 6.7.1 (edcfbbe) compiled by 'albert@albert-system' on 2024-07-22

   xtb is free software: you can redistribute it and/or modify it under
   the terms of the GNU Lesser General Public License as published by
   the Free Software Foundation, either version 3 of the License, or
   (at your option) any later version.
   
   xtb is distributed in the hope that it will be useful,
   but WITHOUT ANY WARRANTY; without even the implied warranty of
   MERCHANTABILITY or FITNESS FOR A PARTICULAR PURPOSE.  See the
   GNU Lesser General Public License for more details.
   
   Cite this work as:
   * C. Bannwarth, E. Caldeweyher, S. Ehlert, A. Hansen, P. Pracht,
     J. Seibert, S. Spicher, S. Grimme, WIREs Comput. Mol. Sci., 2020, 11,
     e01493. DOI: 10.1002/wcms.1493
   
   for GFN2-xTB:
   * C. Bannwarth, S. Ehlert and S. Grimme., J. Chem. Theory Comput., 2019,
     15, 1652-1671. DOI: 10.1021/acs.jctc.8b01176
   for GFN1-xTB:
   * S. Grimme, C. Bannwarth, P. Shushkov, J. Chem. Theory Comput., 2017,
     13, 1989-2009. DOI: 10.1021/acs.jctc.7b00118
   for GFN0-xTB:
   * P. Pracht, E. Caldeweyher, S. Ehlert, S. Grimme, ChemRxiv, 2019, preprint.
     DOI: 10.26434/chemrxiv.8326202.v1
   for GFN-FF:
   * S. Spicher and S. Grimme, Angew. Chem. Int. Ed., 2020, 59, 15665-15673.
     DOI: 10.1002/anie.202004239
   
   for ALPB and GBSA implicit solvation:
   * S. Ehlert, M. Stahn, S. Spicher, S. Grimme, J. Chem. Theory Comput.,
     2021, 17, 4250-4261. DOI: 10.1021/acs.jctc.1c00471
   
   for ddCOSMO and CPCM-X implicit solvation:
   * M. Stahn, S. Ehlert, S. Grimme, J. Phys. Chem. A,
     2023, XX, XXXX-XXXX. DOI: 10.1021/acs.jpca.3c04382
   
   for DFT-D4:
   * E. Caldeweyher, C. Bannwarth and S. Grimme, J. Chem. Phys., 2017,
     147, 034112. DOI: 10.1063/1.4993215
   * E. Caldeweyher, S. Ehlert, A. Hansen, H. Neugebauer, S. Spicher,
     C. Bannwarth and S. Grimme, J. Chem. Phys., 2019, 150, 154122.
     DOI: 10.1063/1.5090222
   * E. Caldeweyher, J.-M. Mewes, S. Ehlert and S. Grimme, Phys. Chem. Chem. Phys.
     2020, 22, 8499-8512. DOI: 10.1039/D0CP00502A
   
   for sTDA-xTB:
   * S. Grimme and C. Bannwarth, J. Chem. Phys., 2016, 145, 054103.
     DOI: 10.1063/1.4959605
   
   in the mass-spec context:
   * V. Asgeirsson, C. Bauer and S. Grimme, Chem. Sci., 2017, 8, 4879.
     DOI: 10.1039/c7sc00601b
   * J. Koopman and S. Grimme, ACS Omega 2019, 4, 12, 15120-15133.
     DOI: 10.1021/acsomega.9b02011
   
   for metadynamics refer to:
   * S. Grimme, J. Chem. Theory Comput., 2019, 155, 2847-2862
     DOI: 10.1021/acs.jctc.9b00143
   
   for SPH calculations refer to:
   * S. Spicher and S. Grimme, J. Chem. Theory Comput., 2021, 17, 1701-1714
     DOI: 10.1021/acs.jctc.0c01306
   
   for ONIOM refer to:
   * C. Plett, A. Katbashev, S. Ehlert, S. Grimme, M. Bursch,
     Phys. Chem. Chem. Phys., 2023, 25, 17860-17868. DOI: 10.1039/D3CP02178E
   
   for DIPRO refer to:
   * J. Kohn, N. Gildemeister, S. Grimme, D. Fazzi, A. Hansen,
     J. Chem. Phys., 2023, just accepted.
   
   for PTB refer to:
   * S. Grimme, M. Mueller, A. Hansen, J. Chem. Phys., 2023, 158, 124111.
     DOI: 10.1063/5.0137838
   
   with help from (in alphabetical order)
   P. Atkinson, C. Bannwarth, F. Bohle, G. Brandenburg, E. Caldeweyher
   M. Checinski, S. Dohm, S. Ehlert, S. Ehrlich, I. Gerasimov, C. Hölzer
   A. Katbashev, J. Kohn, J. Koopman, C. Lavigne, S. Lehtola, F. März, M. Müller,
   F. Musil, H. Neugebauer, J. Pisarek, C. Plett, P. Pracht, F. Pultar,
   J. Seibert, P. Shushkov, S. Spicher, M. Stahn, M. Steiner, T. Strunk,
   J. Stückrath, T. Rose, and J. Unsleber
   
 * started run on 2025/04/09 at 07:31:37.157     
   ID    Z sym.   atoms
    1    6 C      1, 2, 4, 6, 7, 9, 12, 13, 18, 20
    2    8 O      3, 5, 10, 11, 17, 19
    3    1 H      8, 21-38
    4   16 S      14, 16
    5   15 P      15

           -------------------------------------------------
          |                Calculation Setup                |
           -------------------------------------------------

          program call               : /software/projects/pawsey0265/mwang1/xtb/bin/xtb solv.coord --gfn2 --sp --chrg 0 --norestart --parallel 1 --alpb water reference -I xtb_sp-xcontrol-inp
          hostname                   : nid002043
          coordinate file            : solv.coord
          omp threads                :                     1


           -------------------------------------------------
          |                 G F N 2 - x T B                 |
           -------------------------------------------------

        Reference                      10.1021/acs.jctc.8b01176
      * Hamiltonian:
        H0-scaling (s, p, d)           1.850000    2.230000    2.230000
        zeta-weighting                 0.500000
      * Dispersion:
        s8                             2.700000
        a1                             0.520000
        a2                             5.000000
        s9                             5.000000
      * Repulsion:
        kExp                           1.500000    1.000000
        rExp                           1.000000
      * Coulomb:
        alpha                          2.000000
        third order                    shell-resolved
        anisotropic                    true
        a3                             3.000000
        a5                             4.000000
        cn-shift                       1.200000
        cn-exp                         4.000000
        max-rad                        5.000000

      * Solvation model:               ALPB
        Solvent                        water
        Parameter file                 internal GFN2-xTB/ALPB
        Dielectric constant                8.0200E+01
        Reference state                gsolv=reference [X=1]
        Free energy shift                  2.8945E-03 Eh       1.8164E+00 kcal/mol
        Temperature                        2.9815E+02 K
        Density                            1.0000E+00 kg/L
        Solvent mass                       1.8000E+01 g/mol
        Interaction kernel             P16
        Born radius scaling (c1)           1.4744E+00
        Born radii integrator          GBOBC
        Born offset                        0.0000E+00 a0       0.0000E+00 AA
        H-bond correction              true
        Ion screening                  false
        Surface tension                    1.0000E-05 Eh       1.5569E+01 dyn/cm
        Grid points                               974 per atom

          ...................................................
          :                      SETUP                      :
          :.................................................:
          :  # basis functions                 113          :
          :  # atomic orbitals                 110          :
          :  # shells                           60          :
          :  # electrons                       112          :
          :  max. iterations                   250          :
          :  Hamiltonian                  GFN2-xTB          :
          :  restarted?                      false          :
          :  GBSA solvation                   true          :
          :  PC potential                    false          :
          :  electronic temp.          300.0000000     K    :
          :  accuracy                    1.0000000          :
          :  -> integral cutoff          0.2500000E+02      :
          :  -> integral neglect         0.1000000E-07      :
          :  -> SCF convergence          0.1000000E-05 Eh   :
          :  -> wf. convergence          0.1000000E-03 e    :
          :  Broyden damping             0.4000000          :
          :  net charge                          0          :
          :  unpaired electrons                  0          :
          ...................................................

 iter      E             dE          RMSdq      gap      omega  full diag
   1    -65.0952776 -0.650953E+02  0.595E+00    4.24       0.0  T
   2    -65.2265190 -0.131241E+00  0.321E+00    3.29       1.0  T
   3    -65.2362158 -0.969682E-02  0.121E+00    3.18       1.0  T
   4    -65.2419855 -0.576972E-02  0.444E-01    3.06       1.0  T
   5    -65.2427794 -0.793862E-03  0.201E-01    3.16       1.0  T
   6    -65.2428981 -0.118751E-03  0.894E-02    3.17       1.0  T
   7    -65.2429173 -0.191677E-04  0.306E-02    3.19       1.0  T
   8    -65.2429193 -0.203180E-05  0.125E-02    3.19       1.3  T
   9    -65.2429199 -0.559886E-06  0.386E-03    3.19       4.2  T
  10    -65.2429199 -0.345742E-07  0.201E-03    3.19       8.1  T
  11    -65.2429199 -0.128065E-07  0.442E-04    3.19      36.7  T
  12    -65.2429199 -0.596174E-09  0.194E-04    3.19      83.6  T

   *** convergence criteria satisfied after 12 iterations ***

         #    Occupation            Energy/Eh            Energy/eV
      -------------------------------------------------------------
         1        2.0000           -0.7753691             -21.0989
       ...           ...                  ...                  ...
        50        2.0000           -0.4525366             -12.3141
        51        2.0000           -0.4480857             -12.1930
        52        2.0000           -0.4474206             -12.1749
        53        2.0000           -0.4393503             -11.9553
        54        2.0000           -0.4074403             -11.0870
        55        2.0000           -0.3916249             -10.6567
        56        2.0000           -0.3880065             -10.5582 (HOMO)
        57                         -0.2707667              -7.3679 (LUMO)
        58                         -0.2647702              -7.2048
        59                         -0.2478173              -6.7435
        60                         -0.2057138              -5.5978
        61                         -0.1700842              -4.6282
       ...                                ...                  ...
       110                          1.2908024              35.1245
      -------------------------------------------------------------
                  HL-Gap            0.1172399 Eh            3.1903 eV
             Fermi-level           -0.3293866 Eh           -8.9631 eV

 SCC (total)                   0 d,  0 h,  0 min,  0.080 sec
 SCC setup                      ...        0 min,  0.005 sec (  5.746%)
 Dispersion                     ...        0 min,  0.000 sec (  0.580%)
 classical contributions        ...        0 min,  0.000 sec (  0.119%)
 integral evaluation            ...        0 min,  0.032 sec ( 40.318%)
 iterations                     ...        0 min,  0.023 sec ( 28.141%)
 molecular gradient             ...        0 min,  0.020 sec ( 24.764%)
 printout                       ...        0 min,  0.000 sec (  0.300%)

         :::::::::::::::::::::::::::::::::::::::::::::::::::::
         ::                     SUMMARY                     ::
         :::::::::::::::::::::::::::::::::::::::::::::::::::::
         :: total energy             -64.670415135412 Eh    ::
         :: total w/o Gsasa/hb       -64.672273889317 Eh    ::
         :: gradient norm              0.000066483578 Eh/a0 ::
         :: HOMO-LUMO gap              3.190259161752 eV    ::
         ::.................................................::
         :: SCC energy               -65.241857401817 Eh    ::
         :: -> isotropic ES            0.169434671651 Eh    ::
         :: -> anisotropic ES         -0.017157923712 Eh    ::
         :: -> anisotropic XC          0.017008724218 Eh    ::
         :: -> dispersion             -0.042221138235 Eh    ::
         :: -> Gsolv                  -0.026982746254 Eh    ::
         ::    -> Gelec               -0.028841500159 Eh    ::
         ::    -> Gsasa                0.004124599220 Eh    ::
         ::    -> Ghb                 -0.005160394475 Eh    ::
         ::    -> Gshift               0.002894549160 Eh    ::
         :: repulsion energy           0.571442266404 Eh    ::
         :: add. restraining           0.000000000000 Eh    ::
         :: total charge               0.000000000000 e     ::
         :::::::::::::::::::::::::::::::::::::::::::::::::::::

           -------------------------------------------------
          |                Property Printout                |
           -------------------------------------------------

    * Orbital Energies and Occupations

         #    Occupation            Energy/Eh            Energy/eV
      -------------------------------------------------------------
         1        2.0000           -0.7753691             -21.0989
       ...           ...                  ...                  ...
        44        2.0000           -0.4739162             -12.8959
        45        2.0000           -0.4732755             -12.8785
        46        2.0000           -0.4711684             -12.8211
        47        2.0000           -0.4602483             -12.5240
        48        2.0000           -0.4571812             -12.4405
        49        2.0000           -0.4541483             -12.3580
        50        2.0000           -0.4525366             -12.3141
        51        2.0000           -0.4480857             -12.1930
        52        2.0000           -0.4474206             -12.1749
        53        2.0000           -0.4393503             -11.9553
        54        2.0000           -0.4074403             -11.0870
        55        2.0000           -0.3916249             -10.6567
        56        2.0000           -0.3880065             -10.5582 (HOMO)
        57                         -0.2707667              -7.3679 (LUMO)
        58                         -0.2647702              -7.2048
        59                         -0.2478173              -6.7435
        60                         -0.2057138              -5.5978
        61                         -0.1700842              -4.6282
        62                         -0.1532501              -4.1701
        63                         -0.1238162              -3.3692
        64                         -0.0502249              -1.3667
        65                         -0.0411460              -1.1196
        66                         -0.0297353              -0.8091
        67                         -0.0192084              -0.5227
       ...                                ...                  ...
       110                          1.2908024              35.1245
      -------------------------------------------------------------
                  HL-Gap            0.1172399 Eh            3.1903 eV
             Fermi-level           -0.3293866 Eh           -8.9631 eV

     #   Z          covCN         q      C6AA      α(0)
     1   6 C        3.751    -0.122    22.910     6.826
     2   6 C        3.693     0.071    19.562     6.328
     3   8 O        1.703    -0.274    18.545     5.814
     4   6 C        2.712     0.374    20.662     7.440
     5   8 O        0.856    -0.454    22.795     6.401
     6   6 C        3.839    -0.105    22.466     6.743
     7   6 C        3.857     0.014    20.301     6.408
     8   1 H        0.924     0.102     1.771     2.081
     9   6 C        2.787     0.376    20.633     7.440
    10   8 O        0.943    -0.439    22.434     6.353
    11   8 O        1.703    -0.231    17.832     5.701
    12   6 C        3.702     0.075    19.473     6.310
    13   6 C        3.752    -0.138    23.216     6.871
    14  16 S        1.991    -0.139   146.918    20.401
    15  15 P        3.867     0.355   145.416    21.662
    16  16 S        0.925    -0.476   160.239    21.411
    17   8 O        1.656    -0.285    18.747     5.845
    18   6 C        3.800     0.015    20.326     6.419
    19   8 O        1.656    -0.251    18.174     5.755
    20   6 C        3.753     0.026    20.195     6.408
    21   1 H        0.925     0.057     2.232     2.336
    22   1 H        0.925     0.079     1.990     2.206
    23   1 H        0.925     0.055     2.257     2.349
    24   1 H        0.924     0.071     2.075     2.253
    25   1 H        0.924     0.081     1.965     2.192
    26   1 H        0.925     0.117     1.636     2.000
    27   1 H        0.924     0.130     1.535     1.938
    28   1 H        0.924     0.069     2.098     2.265
    29   1 H        0.924     0.072     2.068     2.249
    30   1 H        0.925     0.084     1.941     2.179
    31   1 H        0.925     0.076     2.024     2.225
    32   1 H        0.925     0.076     2.023     2.224
    33   1 H        0.924     0.082     1.956     2.187
    34   1 H        0.925     0.108     1.712     2.046
    35   1 H        0.925     0.085     1.933     2.174
    36   1 H        0.925     0.072     2.061     2.245
    37   1 H        0.925     0.088     1.894     2.152
    38   1 H        0.925     0.104     1.747     2.067

 Mol. C6AA /au·bohr⁶  :      18235.530829
 Mol. C8AA /au·bohr⁸  :     514469.688685
 Mol. α(0) /au        :        207.905007


Wiberg/Mayer (AO) data.
largest (>0.10) Wiberg bond orders for each atom

 ---------------------------------------------------------------------------
     #   Z sym  total        # sym  WBO       # sym  WBO       # sym  WBO
 ---------------------------------------------------------------------------
     1   6 C    3.988 --     2 C    1.014    21 H    0.985    23 H    0.985
                            22 H    0.978
     2   6 C    3.900 --     1 C    1.014    25 H    0.969    24 H    0.969
                             3 O    0.907
     3   8 O    2.327 --     4 C    1.168     2 C    0.907     5 O    0.175
     4   6 C    3.916 --     5 O    1.716     3 O    1.168     6 C    0.971
     5   8 O    2.002 --     4 C    1.716     3 O    0.175
     6   6 C    3.978 --     7 C    0.990     4 C    0.971    26 H    0.959
                            27 H    0.929
     7   6 C    3.973 --     6 C    0.990    14 S    0.959     9 C    0.957
                             8 H    0.935
     8   1 H    0.990 --     7 C    0.935
     9   6 C    3.918 --    10 O    1.642    11 O    1.232     7 C    0.957
    10   8 O    2.078 --     9 C    1.642    11 O    0.165    15 P    0.130
    11   8 O    2.362 --     9 C    1.232    12 C    0.894    10 O    0.165
    12   6 C    3.890 --    13 C    1.020    28 H    0.967    29 H    0.967
                            11 O    0.894
    13   6 C    3.980 --    12 C    1.020    31 H    0.983    32 H    0.982
                            30 H    0.977
    14  16 S    2.246 --    15 P    0.960     7 C    0.959    16 S    0.127
    15  15 P    5.314 --    16 S    1.521    19 O    1.304    17 O    1.286
                            14 S    0.960    10 O    0.130
    16  16 S    1.822 --    15 P    1.521    14 S    0.127
    17   8 O    2.351 --    15 P    1.286    18 C    0.902
    18   6 C    3.887 --    35 H    0.978    34 H    0.973    33 H    0.971
                            17 O    0.902
    19   8 O    2.408 --    15 P    1.304    20 C    0.910
    20   6 C    3.884 --    37 H    0.977    36 H    0.977    38 H    0.971
                            19 O    0.910
    21   1 H    0.997 --     1 C    0.985
    22   1 H    0.993 --     1 C    0.978
    23   1 H    0.997 --     1 C    0.985
    24   1 H    0.995 --     2 C    0.969
    25   1 H    0.993 --     2 C    0.969
    26   1 H    0.986 --     6 C    0.959
    27   1 H    0.982 --     6 C    0.929
    28   1 H    0.995 --    12 C    0.967
    29   1 H    0.995 --    12 C    0.967
    30   1 H    0.992 --    13 C    0.977
    31   1 H    0.994 --    13 C    0.983
    32   1 H    0.994 --    13 C    0.982
    33   1 H    0.993 --    18 C    0.971
    34   1 H    0.988 --    18 C    0.973
    35   1 H    0.993 --    18 C    0.978
    36   1 H    0.995 --    20 C    0.977
    37   1 H    0.992 --    20 C    0.977
    38   1 H    0.989 --    20 C    0.971
 ---------------------------------------------------------------------------

Topologies differ in total number of bonds
Writing topology from bond orders to xtbtopo.mol

molecular dipole:
                 x           y           z       tot (Debye)
 q only:        2.024      -1.051       0.913
   full:        1.865      -1.044       1.133       6.149
molecular quadrupole (traceless):
                xx          xy          yy          xz          yz          zz
 q only:       -0.060      29.558       0.442      17.997     -10.581      -0.382
  q+dip:        3.180      27.762      -2.447      16.750     -14.505      -0.733
   full:        3.340      29.061      -2.100      16.897     -13.731      -1.240


           -------------------------------------------------
          | TOTAL ENERGY              -64.670415135412 Eh   |
          | GRADIENT NORM               0.000066483578 Eh/α |
          | HOMO-LUMO GAP               3.190259161752 eV   |
           -------------------------------------------------

------------------------------------------------------------------------
 * finished run on 2025/04/09 at 07:31:37.285     
------------------------------------------------------------------------
 total:
 * wall-time:     0 d,  0 h,  0 min,  0.127 sec
 *  cpu-time:     0 d,  0 h,  0 min,  0.083 sec
 * ratio c/w:     0.655 speedup
 SCF:
 * wall-time:     0 d,  0 h,  0 min,  0.081 sec
 *  cpu-time:     0 d,  0 h,  0 min,  0.065 sec
 * ratio c/w:     0.805 speedup

