 Entering Gaussian System
 *********************************************
 Gaussian 98:
 frequency output generated by the xtb code
 *********************************************
                         Standard orientation:
 --------------------------------------------------------------------
  Center     Atomic     Atomic              Coordinates (Angstroms)
  Number     Number      Type              X           Y           Z
 --------------------------------------------------------------------
    1          6             0        3.921367   -1.481643   -2.593878
    2          6             0        4.164666   -1.719632   -1.117266
    3          8             0        2.947961   -1.692368   -0.349729
    4         15             0        2.146594   -0.358298   -0.027656
    5         16             0        3.246556    1.241473    0.262685
    6          8             0        1.240835   -0.818628    1.187856
    7          6             0        1.576345   -0.541648    2.560792
    8          6             0        2.698497   -1.431282    3.053862
    9         16             0        0.681441   -0.263304   -1.549048
   10          6             0        0.135888    1.437503   -1.230379
   11         16             0       -0.641710    1.658269    0.390720
   12         15             0       -2.356470    0.458154    0.024324
   13         16             0       -3.074203    0.530337   -1.802588
   14          8             0       -3.320857    0.842062    1.222024
   15          6             0       -3.675665    2.172615    1.642231
   16          6             0       -4.369796    2.970061    0.556745
   17          8             0       -1.974358   -0.995138    0.522737
   18          6             0       -2.094827   -2.196257   -0.269435
   19          6             0       -1.071742   -3.197821    0.225355
   20          1             0        4.850862   -1.628733   -3.135425
   21          1             0        3.171743   -2.172006   -2.971824
   22          1             0        3.574509   -0.462589   -2.758989
   23          1             0        4.846165   -0.963707   -0.713842
   24          1             0        4.566191   -2.717418   -0.934040
   25          1             0        1.851262    0.515138    2.645660
   26          1             0        0.645461   -0.722876    3.100343
   27          1             0        2.448120   -2.477022    2.896866
   28          1             0        3.617202   -1.203441    2.514784
   29          1             0        2.857550   -1.252662    4.112907
   30          1             0       -0.581990    1.678355   -2.014738
   31          1             0        0.993221    2.109480   -1.252647
   32          1             0       -4.338851    2.000270    2.492269
   33          1             0       -2.768492    2.682085    1.979278
   34          1             0       -5.237585    2.430572    0.185067
   35          1             0       -4.688702    3.924321    0.964344
   36          1             0       -3.691318    3.148577   -0.275790
   37          1             0       -3.112172   -2.573031   -0.137548
   38          1             0       -1.941802   -1.950465   -1.325369
   39          1             0       -1.212375   -3.372721    1.288211
   40          1             0       -1.200459   -4.130313   -0.314365
   41          1             0       -0.063695   -2.824559    0.061380
 --------------------------------------------------------------------
     1 basis functions        1 primitive gaussians
     1 alpha electrons        1 beta electrons
 
 Harmonic frequencies (cm**-1), IR intensities (km*mol⁻¹),
 Raman scattering activities (A**4/amu), Raman depolarization ratios,
 reduced masses (AMU), force constants (mDyne/A) and normal coordinates:
                      1                      2                      3
                        a                      a                      a 
 Frequencies --    45.2258                48.2440                54.7576
 Red. masses --    20.7660                22.0053                18.7388
 Frc consts  --     0.0000                 0.0000                 0.0000
 IR Inten    --     0.0636                 3.3915                 3.0171
 Raman Activ --     0.0000                 0.0000                 0.0000
 Depolar     --     0.0000                 0.0000                 0.0000
 Atom AN      X      Y      Z        X      Y      Z        X      Y      Z
   1   6    -0.03  -0.00   0.05     0.14   0.13   0.08    -0.02  -0.15   0.15
   2   6    -0.10  -0.00   0.06     0.17   0.15   0.07    -0.06  -0.16   0.16
   3   8    -0.15  -0.00   0.01     0.21   0.08   0.10    -0.08  -0.07   0.16
   4  15    -0.21   0.01   0.00     0.02  -0.03   0.04     0.04   0.03   0.08
   5  16    -0.21  -0.03   0.16    -0.32   0.20   0.06     0.24  -0.05  -0.23
   6   8    -0.21  -0.02  -0.06     0.03  -0.12   0.01     0.01   0.23   0.12
   7   6    -0.21  -0.06  -0.03    -0.00  -0.09   0.01     0.12   0.14   0.09
   8   6    -0.20  -0.06  -0.04     0.02  -0.06   0.03     0.07   0.03   0.01
   9  16    -0.05   0.09  -0.15     0.08  -0.35  -0.03    -0.02  -0.06   0.14
  10   6     0.03   0.08  -0.15    -0.01  -0.20  -0.18    -0.00  -0.01  -0.03
  11  16     0.12   0.29  -0.24     0.09  -0.11  -0.27    -0.15   0.17  -0.15
  12  15     0.26   0.02   0.02    -0.07   0.04  -0.02    -0.05   0.03  -0.11
  13  16    -0.01  -0.16   0.12    -0.34   0.11   0.09    -0.29   0.16  -0.02
  14   8     0.25  -0.06   0.09     0.11   0.08   0.09     0.02  -0.15   0.02
  15   6     0.10  -0.07   0.06     0.16   0.09   0.09    -0.01  -0.18   0.14
  16   6     0.05  -0.13   0.05     0.15   0.11   0.11    -0.02  -0.09   0.22
  17   8     0.42   0.07  -0.02    -0.11  -0.00  -0.05     0.14   0.02  -0.23
  18   6     0.14   0.02   0.07    -0.06   0.02  -0.08     0.09   0.03  -0.22
  19   6     0.06  -0.07   0.03    -0.07   0.01  -0.09     0.05   0.01  -0.21
  20   1    -0.00  -0.00   0.03     0.04   0.05   0.02    -0.00  -0.05   0.05
  21   1    -0.01  -0.00   0.01     0.05   0.03   0.03    -0.01  -0.03   0.04
  22   1    -0.01  -0.00   0.01     0.03   0.03   0.02     0.01  -0.04   0.04
  23   1    -0.03  -0.00   0.03     0.04   0.06   0.02    -0.00  -0.06   0.05
  24   1    -0.03  -0.00   0.02     0.07   0.05   0.02    -0.04  -0.05   0.05
  25   1    -0.06  -0.02   0.00    -0.01  -0.02   0.00     0.06   0.03   0.03
  26   1    -0.06  -0.02  -0.02    -0.00  -0.04  -0.00     0.04   0.06   0.04
  27   1    -0.05  -0.02  -0.02     0.01  -0.02   0.01    -0.01   0.02  -0.00
  28   1    -0.06  -0.01  -0.01     0.01  -0.01   0.01     0.02  -0.01  -0.00
  29   1    -0.06  -0.02  -0.01    -0.00  -0.02   0.01     0.03  -0.01   0.00
  30   1     0.01   0.02  -0.04    -0.01  -0.09  -0.05     0.01  -0.01  -0.02
  31   1     0.01   0.02  -0.06    -0.01  -0.05  -0.08     0.00  -0.01  -0.01
  32   1     0.03  -0.03   0.02     0.05   0.03   0.03    -0.00  -0.08   0.04
  33   1     0.02   0.00   0.02     0.05   0.02   0.02    -0.01  -0.05   0.05
  34   1     0.02  -0.05   0.01     0.04   0.04   0.04    -0.01  -0.02   0.05
  35   1    -0.01  -0.04   0.01     0.05   0.03   0.03    -0.01  -0.04   0.09
  36   1     0.01  -0.03   0.01     0.04   0.03   0.03    -0.01  -0.00   0.07
  37   1     0.03   0.04   0.05    -0.02   0.00  -0.04     0.02   0.02  -0.07
  38   1     0.02  -0.02   0.01    -0.01   0.02  -0.02     0.03   0.01  -0.06
  39   1     0.03  -0.01   0.01    -0.03  -0.00  -0.03     0.00  -0.00  -0.06
  40   1    -0.02  -0.02   0.02    -0.02   0.01  -0.03     0.02   0.00  -0.07
  41   1     0.02  -0.05  -0.01    -0.02   0.01  -0.02     0.02  -0.00  -0.05
                      4                      5                      6
                        a                      a                      a 
 Frequencies --    62.4667                63.5820                65.0795
 Red. masses --    20.1162                19.8599                18.1210
 Frc consts  --     0.0000                 0.0000                 0.0000
 IR Inten    --     1.2895                 1.2310                 1.9413
 Raman Activ --     0.0000                 0.0000                 0.0000
 Depolar     --     0.0000                 0.0000                 0.0000
 Atom AN      X      Y      Z        X      Y      Z        X      Y      Z
   1   6     0.25  -0.08   0.09     0.02  -0.05   0.00    -0.05  -0.04   0.08
   2   6     0.08  -0.08   0.12     0.00  -0.02   0.01    -0.08  -0.01   0.09
   3   8    -0.01  -0.02  -0.03     0.00   0.07   0.01    -0.12   0.03   0.07
   4  15     0.09   0.06  -0.15     0.08   0.15   0.02    -0.18   0.06  -0.02
   5  16     0.25  -0.08  -0.04     0.19   0.06   0.15    -0.24   0.14  -0.22
   6   8    -0.08   0.11  -0.19    -0.00   0.13  -0.02    -0.11   0.10   0.02
   7   6    -0.24   0.15  -0.14     0.09  -0.14   0.01    -0.05   0.11   0.01
   8   6    -0.32   0.16   0.04    -0.03  -0.37  -0.15    -0.05   0.11  -0.01
   9  16     0.24   0.17  -0.30     0.12   0.19  -0.01    -0.18   0.01  -0.02
  10   6    -0.02   0.03  -0.01    -0.05   0.08  -0.02    -0.03   0.01   0.07
  11  16     0.06  -0.22   0.06    -0.25   0.11  -0.12     0.03  -0.16   0.18
  12  15    -0.08  -0.07   0.14    -0.15  -0.06  -0.05     0.05  -0.14   0.01
  13  16    -0.20   0.03   0.19    -0.23  -0.38  -0.03     0.29  -0.02  -0.08
  14   8     0.04   0.00   0.15    -0.12   0.01  -0.05    -0.03  -0.08  -0.06
  15   6     0.01   0.02   0.06     0.07   0.04   0.01     0.20  -0.04   0.06
  16   6     0.01  -0.04   0.01     0.29   0.21  -0.01     0.45   0.20   0.08
  17   8    -0.16  -0.08   0.07    -0.05  -0.00   0.06    -0.11  -0.14   0.00
  18   6    -0.04  -0.03  -0.02     0.02  -0.03   0.09     0.08  -0.08  -0.10
  19   6    -0.00  -0.00  -0.04     0.05   0.02   0.12     0.15  -0.02  -0.12
  20   1     0.09  -0.03   0.06     0.00  -0.03   0.00    -0.01  -0.02   0.03
  21   1     0.08  -0.02   0.00    -0.00  -0.01   0.01    -0.01  -0.01   0.02
  22   1     0.08  -0.02   0.02     0.02  -0.01  -0.01    -0.01  -0.01   0.01
  23   1     0.02  -0.03   0.06     0.01  -0.01  -0.00    -0.02  -0.00   0.03
  24   1     0.00  -0.03   0.05    -0.01  -0.01   0.01    -0.03  -0.00   0.03
  25   1    -0.07   0.04  -0.04     0.07  -0.05   0.04    -0.01   0.03  -0.01
  26   1    -0.09   0.06  -0.07     0.02  -0.02   0.00    -0.01   0.04   0.01
  27   1    -0.09   0.04   0.02    -0.05  -0.09  -0.08    -0.02   0.03   0.00
  28   1    -0.07   0.03   0.04    -0.00  -0.12  -0.04    -0.02   0.03  -0.01
  29   1    -0.12   0.06   0.01     0.01  -0.15  -0.04    -0.01   0.03  -0.00
  30   1    -0.02   0.00   0.01    -0.00   0.01  -0.02    -0.01   0.02   0.03
  31   1    -0.03   0.03  -0.00    -0.02   0.04   0.01    -0.00  -0.01   0.03
  32   1     0.00   0.02   0.02    -0.01   0.03  -0.02     0.03  -0.00  -0.00
  33   1     0.00   0.01   0.01     0.03  -0.04   0.03     0.08  -0.07   0.05
  34   1     0.01  -0.02   0.00     0.07   0.11  -0.03     0.11   0.11  -0.01
  35   1    -0.01  -0.01  -0.01     0.12   0.07   0.00     0.17   0.06   0.04
  36   1     0.01  -0.01   0.01     0.11   0.04   0.02     0.16   0.04   0.04
  37   1    -0.01  -0.03  -0.02     0.01  -0.02   0.02     0.03  -0.05  -0.05
  38   1    -0.01   0.01   0.00     0.01  -0.01   0.02     0.03   0.00  -0.02
  39   1    -0.00  -0.02  -0.02     0.01   0.01   0.03     0.04  -0.02  -0.04
  40   1     0.01   0.00  -0.03     0.02   0.00   0.04     0.06  -0.00  -0.05
  41   1    -0.00   0.01  -0.00     0.01   0.01   0.03     0.04   0.02  -0.02
                      7                      8                      9
                        a                      a                      a 
 Frequencies --    69.4005                73.0518                71.1459
 Red. masses --    15.7951                17.2962                11.9755
 Frc consts  --     0.0000                 0.0000                 0.0000
 IR Inten    --     2.7942                 6.8134                 3.3366
 Raman Activ --     0.0000                 0.0000                 0.0000
 Depolar     --     0.0000                 0.0000                 0.0000
 Atom AN      X      Y      Z        X      Y      Z        X      Y      Z
   1   6     0.42   0.30   0.19    -0.01  -0.30   0.05     0.02   0.35  -0.01
   2   6     0.09   0.01   0.20     0.06   0.01   0.09     0.03   0.05  -0.06
   3   8    -0.10  -0.09  -0.08     0.10   0.13   0.15     0.05  -0.01  -0.04
   4  15    -0.11  -0.11  -0.10     0.04   0.18  -0.04     0.08  -0.01  -0.03
   5  16    -0.00  -0.14  -0.34    -0.11   0.34  -0.28     0.15  -0.03  -0.17
   6   8    -0.04   0.01  -0.01    -0.01   0.18  -0.04     0.07   0.02  -0.01
   7   6     0.07  -0.09  -0.02     0.05  -0.07  -0.01    -0.05   0.11   0.00
   8   6     0.02  -0.21  -0.11    -0.14  -0.37  -0.10    -0.20   0.03   0.19
   9  16    -0.27  -0.08   0.06     0.02  -0.01  -0.01    -0.02  -0.05   0.06
  10   6    -0.02  -0.00   0.04     0.00  -0.01   0.02     0.03  -0.01   0.02
  11  16    -0.03   0.11   0.06     0.11  -0.06   0.10    -0.04   0.04  -0.02
  12  15    -0.00   0.06   0.08     0.09   0.00   0.05     0.04  -0.02  -0.10
  13  16     0.05  -0.01   0.06     0.21   0.13   0.02     0.10  -0.09  -0.12
  14   8    -0.03   0.05   0.02     0.03  -0.02   0.02    -0.04  -0.08  -0.09
  15   6    -0.09   0.05  -0.05    -0.06  -0.03  -0.02     0.04  -0.11   0.10
  16   6    -0.05  -0.00  -0.11    -0.17  -0.12  -0.02     0.11   0.08   0.19
  17   8     0.00   0.05   0.09     0.03  -0.01   0.01     0.15   0.02  -0.08
  18   6     0.08   0.05   0.06    -0.12  -0.01   0.03    -0.18  -0.04   0.07
  19   6     0.12   0.08   0.04    -0.21  -0.10   0.04    -0.41  -0.21   0.20
  20   1     0.16   0.12   0.11    -0.01  -0.10   0.01     0.00   0.11  -0.02
  21   1     0.15   0.11  -0.03     0.00  -0.12   0.06    -0.01   0.14  -0.04
  22   1     0.13   0.10   0.09    -0.02  -0.10  -0.04     0.03   0.12   0.06
  23   1     0.01  -0.03   0.14     0.01   0.03  -0.02     0.02  -0.02   0.02
  24   1     0.00  -0.01   0.03     0.03   0.02   0.08    -0.01  -0.00  -0.07
  25   1     0.05  -0.03   0.01     0.08  -0.04   0.03     0.02   0.03  -0.02
  26   1     0.02  -0.01   0.01     0.00   0.02  -0.01    -0.04   0.07  -0.02
  27   1    -0.02  -0.05  -0.05    -0.10  -0.09  -0.07    -0.09   0.01   0.08
  28   1     0.01  -0.07  -0.03    -0.02  -0.14  -0.01    -0.04  -0.04   0.07
  29   1     0.02  -0.08  -0.03    -0.04  -0.15  -0.02    -0.08   0.03   0.06
  30   1     0.00   0.02   0.01    -0.01  -0.01   0.02     0.02   0.00  -0.00
  31   1     0.01  -0.02   0.01    -0.00  -0.00  -0.00     0.01  -0.01   0.01
  32   1    -0.04   0.02  -0.02    -0.00  -0.01   0.00     0.01  -0.05   0.02
  33   1    -0.04   0.02  -0.00    -0.03   0.02  -0.02     0.02  -0.06   0.05
  34   1    -0.00  -0.01  -0.05    -0.04  -0.06   0.01     0.02   0.06   0.04
  35   1    -0.03  -0.00  -0.05    -0.06  -0.04  -0.01     0.05   0.02   0.09
  36   1    -0.00  -0.00  -0.02    -0.06  -0.03  -0.01     0.03   0.03   0.06
  37   1     0.03   0.00   0.01    -0.05   0.03   0.02    -0.08   0.06   0.03
  38   1     0.02   0.02   0.02    -0.03  -0.01   0.01    -0.03  -0.06   0.01
  39   1     0.04   0.02   0.01    -0.07  -0.03   0.01    -0.15  -0.03   0.06
  40   1     0.04   0.02   0.01    -0.08  -0.03   0.01    -0.15  -0.06   0.07
  41   1     0.03   0.03   0.01    -0.05  -0.05   0.02    -0.10  -0.11   0.07
                     10                     11                     12
                        a                      a                      a 
 Frequencies --    70.0275                78.3270                81.6082
 Red. masses --    11.2108                12.6900                12.6111
 Frc consts  --     0.0000                 0.0000                 0.0000
 IR Inten    --     0.8926                 1.3388                 2.1290
 Raman Activ --     0.0000                 0.0000                 0.0000
 Depolar     --     0.0000                 0.0000                 0.0000
 Atom AN      X      Y      Z        X      Y      Z        X      Y      Z
   1   6     0.32  -0.24   0.08     0.02  -0.04  -0.05    -0.17   0.31   0.16
   2   6     0.10  -0.00   0.15     0.02   0.04  -0.04    -0.14  -0.08   0.10
   3   8    -0.05   0.00  -0.08     0.02   0.03  -0.06    -0.11  -0.02   0.20
   4  15    -0.07  -0.01  -0.05     0.02   0.01   0.02    -0.05   0.08   0.08
   5  16    -0.12  -0.02   0.15     0.00   0.03  -0.02     0.12  -0.03   0.06
   6   8    -0.05  -0.07  -0.05     0.08  -0.04   0.04    -0.15   0.22   0.03
   7   6     0.04  -0.06  -0.07     0.05   0.03   0.03     0.06   0.00   0.02
   8   6     0.35   0.23  -0.24     0.06   0.06   0.07     0.23   0.04  -0.29
   9  16    -0.01   0.15  -0.09    -0.08   0.04   0.12     0.14   0.01  -0.10
  10   6    -0.01   0.08   0.03    -0.01   0.04   0.08     0.01  -0.02  -0.07
  11  16    -0.07   0.03   0.04    -0.02   0.06   0.13     0.12  -0.13  -0.06
  12  15    -0.02   0.01  -0.07     0.05  -0.02   0.11     0.06  -0.07   0.04
  13  16     0.01   0.06  -0.08    -0.21  -0.01   0.22     0.08  -0.11   0.03
  14   8    -0.06  -0.06  -0.05     0.06  -0.07   0.12     0.09   0.06   0.03
  15   6    -0.00  -0.08   0.07    -0.12  -0.03  -0.13     0.09   0.08  -0.06
  16   6     0.03   0.04   0.13     0.32  -0.07  -0.44    -0.07  -0.05  -0.06
  17   8     0.07   0.02  -0.08     0.21  -0.01  -0.04    -0.09  -0.08   0.06
  18   6    -0.11  -0.03   0.03    -0.15   0.03  -0.05    -0.23  -0.04   0.04
  19   6    -0.27  -0.12   0.18    -0.21  -0.13  -0.26    -0.16  -0.08  -0.18
  20   1     0.12  -0.06   0.07     0.01  -0.01  -0.01    -0.07   0.07   0.02
  21   1     0.13  -0.11   0.02     0.02  -0.02  -0.01    -0.09   0.16   0.01
  22   1     0.07  -0.09  -0.04    -0.00  -0.02  -0.03     0.01   0.12   0.12
  23   1    -0.01   0.03   0.05    -0.00   0.02  -0.02     0.01  -0.09   0.06
  24   1     0.04   0.02   0.10     0.02   0.02   0.00    -0.09  -0.06  -0.04
  25   1    -0.07   0.00  -0.01     0.01   0.01  -0.00    -0.01   0.00   0.04
  26   1     0.04  -0.10   0.01     0.01   0.01   0.01     0.05  -0.05   0.04
  27   1     0.18   0.05  -0.08     0.02   0.02   0.03     0.09   0.01  -0.12
  28   1     0.06   0.15  -0.10     0.02   0.01   0.02     0.04   0.07  -0.11
  29   1     0.12   0.06  -0.07     0.01   0.03   0.02     0.10  -0.03  -0.08
  30   1     0.00   0.03   0.01     0.00   0.02   0.02    -0.01  -0.02  -0.01
  31   1    -0.00   0.02   0.02     0.00   0.00   0.02    -0.01   0.01  -0.03
  32   1    -0.00  -0.04   0.02    -0.13   0.01  -0.11     0.05   0.04   0.01
  33   1     0.00  -0.04   0.03    -0.07  -0.01   0.05     0.03   0.04  -0.06
  34   1     0.00   0.03   0.03     0.13  -0.02  -0.22    -0.02  -0.04   0.02
  35   1     0.02   0.01   0.06     0.05  -0.02  -0.17    -0.02  -0.01  -0.03
  36   1     0.01   0.02   0.04     0.19  -0.03  -0.05    -0.05  -0.02  -0.04
  37   1    -0.05   0.04   0.01    -0.05   0.05   0.03    -0.06  -0.01   0.06
  38   1    -0.01  -0.04   0.01    -0.08   0.01  -0.02    -0.12  -0.00   0.00
  39   1    -0.10  -0.01   0.05    -0.03  -0.06  -0.07    -0.00  -0.05  -0.05
  40   1    -0.10  -0.04   0.07    -0.11  -0.02  -0.09    -0.07  -0.01  -0.07
  41   1    -0.06  -0.07   0.06    -0.05  -0.06  -0.10    -0.05  -0.02  -0.08
                     13                     14                     15
                        a                      a                      a 
 Frequencies --    80.9529               104.1655               125.2667
 Red. masses --    11.2708                11.6178                14.9259
 Frc consts  --     0.0000                 0.0000                 0.0000
 IR Inten    --     2.9236                 5.9153                 2.5385
 Raman Activ --     0.0000                 0.0000                 0.0000
 Depolar     --     0.0000                 0.0000                 0.0000
 Atom AN      X      Y      Z        X      Y      Z        X      Y      Z
   1   6    -0.14   0.14   0.02    -0.13   0.06   0.06     0.11   0.01  -0.04
   2   6    -0.08  -0.03  -0.02     0.02  -0.08   0.01    -0.07   0.04  -0.00
   3   8    -0.04  -0.00   0.06     0.13  -0.04   0.17    -0.19   0.03  -0.17
   4  15    -0.02   0.03   0.01     0.08  -0.05  -0.03    -0.14   0.07   0.01
   5  16     0.01   0.01   0.01    -0.03   0.04  -0.07    -0.02  -0.05   0.22
   6   8    -0.05   0.06  -0.00    -0.07  -0.00  -0.11     0.05   0.07   0.13
   7   6     0.02  -0.03  -0.00    -0.12  -0.08  -0.06     0.26   0.19   0.04
   8   6     0.05  -0.04  -0.10    -0.00   0.04  -0.13    -0.01  -0.12   0.10
   9  16     0.05   0.01  -0.06     0.16  -0.10  -0.11    -0.05   0.04  -0.08
  10   6    -0.01  -0.01  -0.01     0.02  -0.09   0.01    -0.06   0.02  -0.09
  11  16     0.07  -0.11   0.02     0.02  -0.07   0.02     0.05  -0.16  -0.07
  12  15    -0.02  -0.03  -0.01    -0.05   0.09  -0.02     0.02  -0.08  -0.11
  13  16    -0.13   0.31   0.05     0.00   0.23  -0.04    -0.09   0.36  -0.06
  14   8     0.07  -0.07   0.07    -0.16  -0.09  -0.06     0.08  -0.07  -0.03
  15   6    -0.04  -0.05  -0.06    -0.32  -0.18   0.09     0.10  -0.05  -0.05
  16   6     0.12  -0.10  -0.20     0.11   0.07   0.01     0.05  -0.08  -0.04
  17   8    -0.08  -0.05  -0.07     0.18   0.13  -0.01     0.00  -0.06  -0.08
  18   6     0.30  -0.01  -0.17    -0.08  -0.04   0.27    -0.16  -0.22   0.22
  19   6    -0.05  -0.07   0.46     0.19   0.13   0.07     0.11  -0.00   0.10
  20   1    -0.05   0.03  -0.01    -0.06   0.00  -0.02     0.05   0.01   0.03
  21   1    -0.07   0.07  -0.00    -0.07   0.05   0.03     0.05  -0.00  -0.04
  22   1    -0.02   0.05   0.04    -0.01   0.03   0.05     0.03   0.00  -0.03
  23   1     0.00  -0.04   0.00     0.04  -0.05  -0.00    -0.04   0.02   0.02
  24   1    -0.04  -0.02  -0.04    -0.01  -0.04  -0.03    -0.02   0.01   0.02
  25   1     0.00  -0.01   0.01    -0.08  -0.01   0.01     0.18   0.03  -0.05
  26   1     0.01  -0.02   0.01    -0.03  -0.08  -0.03     0.07   0.18   0.05
  27   1     0.02  -0.01  -0.04     0.04   0.00  -0.07    -0.11  -0.02   0.09
  28   1     0.01   0.00  -0.04    -0.01   0.06  -0.03     0.01  -0.15  -0.00
  29   1     0.03  -0.03  -0.03    -0.01  -0.01  -0.03     0.04   0.00   0.02
  30   1    -0.01  -0.01   0.00     0.00  -0.03   0.00    -0.03  -0.00  -0.01
  31   1    -0.01   0.00  -0.01    -0.00  -0.02  -0.00    -0.03   0.01  -0.04
  32   1    -0.05  -0.01  -0.05    -0.19  -0.11  -0.06     0.04  -0.00  -0.00
  33   1    -0.03  -0.01   0.02    -0.13  -0.07   0.16     0.03  -0.01  -0.03
  34   1     0.06  -0.04  -0.10     0.07   0.05  -0.13     0.01  -0.03  -0.00
  35   1     0.00  -0.03  -0.08    -0.00  -0.00   0.03     0.01  -0.02  -0.01
  36   1     0.08  -0.02  -0.02     0.13   0.07   0.09     0.00  -0.02  -0.02
  37   1     0.06   0.01  -0.22     0.00  -0.03   0.22    -0.02  -0.08   0.19
  38   1     0.27  -0.00  -0.02    -0.15  -0.06   0.05    -0.16  -0.12   0.03
  39   1    -0.18   0.01   0.11     0.17   0.09   0.04     0.14   0.06   0.05
  40   1     0.05  -0.03   0.13     0.02   0.01   0.08     0.01  -0.04   0.10
  41   1     0.02  -0.05   0.28     0.03   0.05  -0.10     0.01   0.02  -0.09
                     16                     17                     18
                        a                      a                      a 
 Frequencies --   138.1635               133.9710               152.7885
 Red. masses --    20.3484                15.2227                17.7150
 Frc consts  --     0.0000                 0.0000                 0.0000
 IR Inten    --    10.0275                 2.7761                19.3060
 Raman Activ --     0.0000                 0.0000                 0.0000
 Depolar     --     0.0000                 0.0000                 0.0000
 Atom AN      X      Y      Z        X      Y      Z        X      Y      Z
   1   6     0.02   0.05   0.05     0.10  -0.01  -0.03     0.10   0.00  -0.04
   2   6    -0.04  -0.34   0.00    -0.05  -0.29  -0.05     0.01  -0.31  -0.07
   3   8    -0.01  -0.10   0.05    -0.07  -0.04  -0.09     0.05   0.02  -0.05
   4  15     0.04  -0.09  -0.00     0.03   0.02  -0.07     0.17   0.08  -0.03
   5  16    -0.36   0.21  -0.15    -0.19   0.11   0.23     0.01   0.20   0.03
   6   8     0.12  -0.15   0.03     0.11   0.00   0.02     0.07  -0.04  -0.10
   7   6     0.10  -0.01   0.01     0.21   0.16  -0.04    -0.18  -0.16  -0.01
   8   6     0.05  -0.02   0.13     0.03  -0.02   0.06    -0.03   0.06   0.01
   9  16     0.18   0.25  -0.11     0.08  -0.04  -0.11    -0.13  -0.02   0.23
  10   6     0.12   0.12   0.15    -0.07  -0.04  -0.15    -0.05   0.01  -0.01
  11  16     0.04  -0.12   0.21     0.01   0.10  -0.20    -0.27   0.25  -0.14
  12  15     0.01   0.03  -0.11    -0.04   0.04   0.15    -0.03  -0.12   0.03
  13  16    -0.30  -0.13   0.00     0.29  -0.10   0.02     0.13   0.27  -0.01
  14   8    -0.02   0.04  -0.09    -0.05  -0.01   0.10     0.07  -0.07   0.09
  15   6     0.08   0.07  -0.08    -0.27  -0.09   0.15     0.20   0.01  -0.05
  16   6    -0.09   0.04   0.01     0.01   0.01   0.04     0.06  -0.13  -0.06
  17   8     0.16   0.06  -0.10    -0.14   0.01   0.13    -0.13  -0.11   0.03
  18   6     0.03   0.01   0.00     0.02   0.12  -0.09    -0.07  -0.14   0.08
  19   6     0.03   0.01   0.02    -0.09   0.03  -0.07     0.05  -0.05   0.02
  20   1    -0.01  -0.04   0.00     0.03  -0.06   0.00     0.01  -0.07  -0.02
  21   1    -0.06   0.11  -0.03    -0.02   0.07  -0.05    -0.04   0.09  -0.04
  22   1     0.10   0.06   0.08     0.11   0.03   0.03     0.13   0.04   0.04
  23   1     0.06  -0.19   0.04     0.05  -0.16   0.02     0.09  -0.18   0.01
  24   1    -0.11  -0.15  -0.06    -0.10  -0.13  -0.05    -0.10  -0.14  -0.06
  25   1     0.04  -0.01  -0.02     0.13   0.03  -0.06    -0.13  -0.03   0.05
  26   1     0.02   0.02   0.00     0.06   0.13   0.01    -0.06  -0.13  -0.05
  27   1    -0.00  -0.01   0.07    -0.06   0.00   0.07     0.07   0.00  -0.05
  28   1     0.02  -0.04   0.04     0.02  -0.09  -0.00    -0.00   0.10   0.05
  29   1     0.01   0.02   0.03     0.03   0.03   0.01    -0.06  -0.02   0.02
  30   1     0.05   0.07   0.04    -0.04  -0.05  -0.04     0.00  -0.01  -0.02
  31   1     0.04   0.03   0.08    -0.04   0.01  -0.07    -0.01  -0.00   0.00
  32   1     0.06   0.03   0.01    -0.15  -0.07  -0.02     0.09   0.05   0.02
  33   1     0.04   0.02  -0.07    -0.12  -0.02   0.14     0.08   0.01  -0.08
  34   1    -0.05   0.01   0.05     0.04   0.00  -0.08    -0.00  -0.05   0.04
  35   1     0.00   0.02   0.01    -0.04  -0.02   0.02     0.04  -0.02  -0.05
  36   1    -0.07  -0.00  -0.03     0.07   0.04   0.08    -0.02  -0.08  -0.05
  37   1     0.01   0.02   0.02    -0.00   0.03  -0.09    -0.01  -0.06   0.06
  38   1    -0.00  -0.02  -0.01     0.06   0.08  -0.01    -0.06  -0.05   0.02
  39   1     0.02   0.02   0.01    -0.08  -0.04  -0.04     0.05  -0.00   0.01
  40   1    -0.01  -0.01   0.02     0.00   0.04  -0.07     0.02  -0.02   0.02
  41   1     0.01  -0.01  -0.01    -0.02   0.01   0.05     0.00   0.00  -0.03
                     19                     20                     21
                        a                      a                      a 
 Frequencies --   166.8588               176.2791               190.5486
 Red. masses --    20.4472                17.1246                17.2636
 Frc consts  --     0.0000                 0.0000                 0.0000
 IR Inten    --    10.9443                 8.9933                14.5620
 Raman Activ --     0.0000                 0.0000                 0.0000
 Depolar     --     0.0000                 0.0000                 0.0000
 Atom AN      X      Y      Z        X      Y      Z        X      Y      Z
   1   6    -0.04   0.01   0.02    -0.15   0.04   0.11    -0.02   0.02   0.02
   2   6    -0.04   0.13   0.04     0.14   0.09   0.06    -0.03   0.04   0.03
   3   8    -0.08  -0.03   0.01     0.26  -0.14   0.24    -0.04  -0.02   0.01
   4  15    -0.09  -0.08   0.16     0.06  -0.27  -0.11    -0.04  -0.02   0.06
   5  16    -0.02  -0.05  -0.38    -0.19  -0.15   0.04     0.01  -0.04  -0.10
   6   8     0.06  -0.20   0.16    -0.06  -0.04  -0.11     0.03  -0.09   0.06
   7   6    -0.01  -0.19   0.18     0.15   0.20  -0.20     0.03  -0.06   0.06
   8   6     0.10  -0.03   0.23    -0.04  -0.00  -0.14     0.05  -0.02   0.09
   9  16     0.24   0.32  -0.14     0.05   0.10  -0.09     0.24   0.04  -0.19
  10   6     0.08   0.17  -0.11     0.13   0.07   0.12    -0.30  -0.09  -0.12
  11  16    -0.03   0.10  -0.24    -0.30   0.25  -0.03    -0.19   0.01  -0.07
  12  15    -0.03  -0.04  -0.00    -0.07  -0.05   0.06    -0.08  -0.10   0.21
  13  16     0.09   0.03  -0.04     0.09   0.09   0.00     0.16   0.23   0.15
  14   8     0.13  -0.01   0.11     0.01  -0.05   0.11    -0.33  -0.06  -0.07
  15   6    -0.06  -0.06   0.09     0.11   0.01  -0.00     0.05   0.09  -0.13
  16   6     0.06  -0.09  -0.00     0.05  -0.10  -0.04    -0.04   0.15  -0.03
  17   8    -0.29  -0.07   0.08    -0.08  -0.04   0.03     0.34  -0.00   0.08
  18   6    -0.11  -0.05   0.04    -0.03  -0.03   0.01     0.14   0.02   0.01
  19   6    -0.02   0.04   0.03    -0.01  -0.02   0.00     0.00  -0.16  -0.07
  20   1    -0.00   0.03   0.02    -0.06   0.07  -0.02    -0.00   0.01   0.01
  21   1     0.02  -0.03   0.01    -0.02  -0.03   0.07     0.00  -0.00   0.01
  22   1    -0.05  -0.01  -0.01    -0.11  -0.01   0.05    -0.01   0.00   0.00
  23   1    -0.05   0.07   0.01     0.02   0.06  -0.01    -0.02   0.03   0.01
  24   1     0.03   0.06   0.03     0.10   0.05   0.00     0.01   0.02   0.01
  25   1    -0.05  -0.04   0.06     0.13   0.04  -0.14     0.00  -0.01   0.01
  26   1    -0.00  -0.10   0.04     0.05   0.17  -0.01     0.01  -0.02   0.02
  27   1     0.08  -0.02   0.06    -0.11   0.01   0.05     0.02  -0.01   0.04
  28   1     0.03   0.03   0.08    -0.02  -0.12  -0.10     0.01  -0.01   0.02
  29   1     0.00  -0.00   0.07     0.05   0.07  -0.06     0.01   0.01   0.02
  30   1     0.04   0.04  -0.04     0.09   0.06  -0.00    -0.14  -0.11  -0.01
  31   1     0.02   0.06  -0.01     0.06  -0.00   0.10    -0.14   0.04  -0.10
  32   1    -0.06  -0.04  -0.01     0.05   0.04   0.02     0.06   0.09   0.01
  33   1    -0.05  -0.00   0.08     0.05   0.00  -0.04     0.07  -0.02  -0.11
  34   1     0.06  -0.05  -0.06    -0.00  -0.03   0.03    -0.10   0.11   0.09
  35   1    -0.04  -0.04  -0.01     0.04  -0.01  -0.04     0.12   0.09  -0.01
  36   1     0.06   0.01   0.04    -0.00  -0.07  -0.04    -0.07  -0.05  -0.08
  37   1    -0.02  -0.04   0.01    -0.01  -0.02   0.01     0.03   0.04  -0.01
  38   1    -0.04  -0.01   0.01    -0.01  -0.00   0.00     0.05   0.02   0.01
  39   1     0.00   0.00   0.01     0.00  -0.00   0.00    -0.02  -0.09  -0.03
  40   1     0.02   0.01   0.01     0.00  -0.01   0.00    -0.03  -0.02  -0.06
  41   1    -0.01   0.04   0.01    -0.00   0.00  -0.00     0.02  -0.08   0.00
                     22                     23                     24
                        a                      a                      a 
 Frequencies --   214.8485               231.2044               214.3484
 Red. masses --    16.4176                18.2506                 4.2720
 Frc consts  --     0.0000                 0.0000                 0.0000
 IR Inten    --    26.3110                21.0739                 2.1888
 Raman Activ --     0.0000                 0.0000                 0.0000
 Depolar     --     0.0000                 0.0000                 0.0000
 Atom AN      X      Y      Z        X      Y      Z        X      Y      Z
   1   6    -0.02  -0.01   0.01    -0.15  -0.01   0.23     0.03   0.00  -0.02
   2   6     0.02  -0.01   0.01     0.08  -0.03   0.17     0.02   0.00  -0.02
   3   8     0.04   0.00   0.03     0.17   0.13   0.24     0.03   0.03  -0.00
   4  15     0.02  -0.01  -0.03    -0.04   0.12  -0.20     0.01   0.00   0.11
   5  16    -0.00   0.00   0.02     0.19  -0.07   0.08     0.03   0.02  -0.07
   6   8     0.01  -0.00  -0.02     0.18  -0.27  -0.11    -0.08  -0.08  -0.01
   7   6     0.01   0.02  -0.03     0.10  -0.12  -0.11    -0.06  -0.03  -0.03
   8   6    -0.00   0.01  -0.01     0.08  -0.02   0.17    -0.02   0.01  -0.07
   9  16    -0.12   0.05   0.06    -0.41   0.15  -0.15     0.06   0.04   0.11
  10   6     0.19   0.11  -0.03    -0.27   0.10  -0.13    -0.09  -0.00  -0.02
  11  16     0.12   0.15  -0.13     0.11  -0.04   0.05    -0.01   0.06   0.01
  12  15     0.25  -0.23  -0.00     0.04   0.03  -0.04     0.04  -0.05   0.05
  13  16    -0.18   0.16   0.22    -0.01  -0.05  -0.04     0.03  -0.04   0.07
  14   8    -0.07   0.07  -0.29     0.04   0.01  -0.02     0.03   0.08  -0.00
  15   6    -0.16   0.00  -0.12     0.01  -0.01   0.00    -0.04   0.07  -0.02
  16   6    -0.14   0.29   0.06     0.00  -0.01   0.01    -0.06   0.11   0.02
  17   8    -0.10  -0.22   0.18    -0.02   0.01  -0.05    -0.08  -0.10  -0.06
  18   6     0.05  -0.18   0.07    -0.02  -0.00  -0.02     0.09  -0.05  -0.17
  19   6     0.05  -0.26  -0.06     0.00   0.03   0.00    -0.00  -0.07  -0.00
  20   1    -0.01   0.00  -0.00    -0.09  -0.07  -0.00    -0.01  -0.07  -0.01
  21   1    -0.01  -0.00   0.01    -0.12   0.05   0.12    -0.04   0.05   0.01
  22   1    -0.01  -0.00   0.01     0.01   0.02   0.09     0.08   0.02  -0.02
  23   1     0.01  -0.00  -0.00     0.06  -0.03   0.03     0.01  -0.01  -0.01
  24   1     0.01  -0.00  -0.00    -0.00  -0.02   0.04    -0.01  -0.00  -0.01
  25   1     0.01   0.01  -0.01     0.02  -0.03  -0.06    -0.01  -0.01  -0.02
  26   1     0.00   0.01  -0.01     0.02  -0.02  -0.04    -0.01  -0.00   0.01
  27   1    -0.01   0.00   0.00     0.04  -0.01   0.09    -0.09  -0.01   0.20
  28   1     0.00  -0.00  -0.00     0.04  -0.02   0.08    -0.08  -0.14  -0.20
  29   1    -0.00   0.01  -0.00    -0.03   0.05   0.05     0.17   0.18  -0.08
  30   1     0.09   0.07  -0.03    -0.14  -0.01   0.00    -0.05  -0.04   0.00
  31   1     0.08  -0.00   0.03    -0.10   0.05  -0.11    -0.04   0.02  -0.04
  32   1    -0.06  -0.06  -0.06    -0.00  -0.01  -0.00    -0.02   0.00  -0.01
  33   1    -0.06  -0.01   0.02    -0.00   0.00   0.01    -0.02   0.03   0.01
  34   1    -0.01   0.09  -0.07     0.02  -0.02  -0.02     0.05  -0.02  -0.08
  35   1    -0.09   0.02   0.12    -0.03  -0.01   0.01    -0.13  -0.03   0.06
  36   1    -0.02   0.21   0.06     0.01   0.02   0.01     0.01   0.15   0.05
  37   1     0.02  -0.06  -0.00    -0.00  -0.00   0.00     0.02  -0.02  -0.09
  38   1     0.02  -0.02   0.03    -0.01  -0.01  -0.01     0.06  -0.00  -0.04
  39   1    -0.04  -0.20  -0.04     0.00   0.02   0.00     0.21   0.33   0.09
  40   1     0.07  -0.02  -0.13     0.01   0.00   0.01    -0.28  -0.17   0.32
  41   1     0.01  -0.03   0.08    -0.00   0.02   0.00     0.02  -0.23  -0.34
                     25                     26                     27
                        a                      a                      a 
 Frequencies --   215.2724               226.4122               230.0551
 Red. masses --     4.0016                 6.2837                 6.4932
 Frc consts  --     0.0000                 0.0000                 0.0000
 IR Inten    --     1.0733                 4.2962                 5.2478
 Raman Activ --     0.0000                 0.0000                 0.0000
 Depolar     --     0.0000                 0.0000                 0.0000
 Atom AN      X      Y      Z        X      Y      Z        X      Y      Z
   1   6     0.06  -0.01  -0.04     0.01  -0.00  -0.00    -0.05   0.02   0.05
   2   6     0.01   0.04  -0.02     0.01   0.04   0.00    -0.05  -0.14   0.01
   3   8     0.02   0.12  -0.01     0.02   0.06   0.01    -0.05  -0.10   0.00
   4  15    -0.07   0.06   0.12    -0.06   0.03  -0.02     0.15   0.01   0.01
   5  16     0.09  -0.00  -0.09     0.02  -0.03   0.02     0.00   0.13   0.00
   6   8    -0.11  -0.12   0.00     0.00   0.01   0.01     0.03  -0.04  -0.06
   7   6    -0.10  -0.08  -0.01     0.02   0.00   0.01    -0.05  -0.06  -0.04
   8   6    -0.01   0.01  -0.08     0.01  -0.00   0.03    -0.01   0.00  -0.03
   9  16     0.04  -0.03   0.08    -0.08  -0.03  -0.06     0.01   0.06   0.14
  10   6     0.02  -0.01   0.01     0.21   0.05  -0.03    -0.14   0.02  -0.08
  11  16     0.04  -0.01   0.01     0.21   0.09  -0.08     0.19   0.08   0.03
  12  15    -0.00   0.04  -0.05     0.05   0.00   0.06     0.11   0.04  -0.03
  13  16    -0.04   0.01  -0.05    -0.05  -0.01   0.11    -0.06  -0.03   0.03
  14   8    -0.01  -0.05  -0.02    -0.15  -0.14  -0.07    -0.04  -0.07  -0.09
  15   6     0.01  -0.06   0.01    -0.13  -0.15  -0.01    -0.03  -0.09  -0.02
  16   6     0.03  -0.07  -0.00     0.02  -0.04  -0.03     0.03  -0.04  -0.01
  17   8     0.02   0.05   0.03    -0.15  -0.03   0.06    -0.11  -0.01   0.00
  18   6    -0.05   0.02   0.09    -0.01   0.04  -0.06    -0.05   0.00  -0.01
  19   6     0.01   0.05  -0.00    -0.03   0.06   0.01    -0.01   0.06   0.02
  20   1    -0.03  -0.23  -0.03    -0.03  -0.14  -0.02     0.08   0.44   0.06
  21   1    -0.14   0.13   0.05    -0.09   0.08   0.04     0.28  -0.24  -0.12
  22   1     0.22   0.06  -0.06     0.13   0.04  -0.03    -0.40  -0.11   0.11
  23   1     0.02   0.00  -0.01     0.01   0.01  -0.00    -0.01  -0.05   0.02
  24   1    -0.02   0.01   0.01    -0.00   0.01   0.01    -0.02  -0.04  -0.02
  25   1    -0.04  -0.02  -0.01     0.01   0.00   0.00    -0.03  -0.01  -0.01
  26   1    -0.02  -0.03   0.01     0.01   0.00   0.00    -0.02  -0.03  -0.02
  27   1    -0.13  -0.02   0.34     0.02   0.00  -0.04    -0.06  -0.01   0.16
  28   1    -0.12  -0.23  -0.32     0.02   0.03   0.05    -0.05  -0.10  -0.14
  29   1     0.28   0.30  -0.11    -0.04  -0.04   0.02     0.12   0.14  -0.05
  30   1     0.00  -0.01   0.00     0.09   0.07  -0.02    -0.09  -0.06   0.00
  31   1     0.00  -0.00  -0.00     0.09  -0.02   0.04    -0.07   0.04  -0.10
  32   1     0.01  -0.01   0.00    -0.05  -0.03  -0.01    -0.01  -0.03  -0.01
  33   1     0.01  -0.02   0.00    -0.03  -0.06   0.01    -0.01  -0.03   0.01
  34   1    -0.03   0.01   0.04    -0.23   0.21   0.24    -0.08   0.07   0.09
  35   1     0.07   0.01  -0.03     0.40   0.16  -0.11     0.15   0.05  -0.04
  36   1    -0.00  -0.08  -0.03    -0.08  -0.37  -0.16    -0.02  -0.14  -0.06
  37   1    -0.01   0.00   0.05    -0.00   0.00  -0.05    -0.01  -0.01  -0.00
  38   1    -0.04   0.00   0.02     0.02   0.03  -0.01    -0.02   0.00  -0.00
  39   1    -0.12  -0.19  -0.05     0.08   0.17   0.04    -0.01   0.01   0.00
  40   1     0.17   0.10  -0.19    -0.11  -0.05   0.14     0.03   0.02   0.00
  41   1    -0.01   0.14   0.20    -0.00  -0.06  -0.14    -0.01   0.04   0.02
                     28                     29                     30
                        a                      a                      a 
 Frequencies --   266.8304               285.1788               317.3439
 Red. masses --    15.5642                12.0602                21.0459
 Frc consts  --     0.0000                 0.0000                 0.0000
 IR Inten    --     3.6885                11.1434                 2.9281
 Raman Activ --     0.0000                 0.0000                 0.0000
 Depolar     --     0.0000                 0.0000                 0.0000
 Atom AN      X      Y      Z        X      Y      Z        X      Y      Z
   1   6    -0.05  -0.00   0.07     0.02   0.00  -0.02     0.06  -0.01  -0.08
   2   6    -0.08  -0.05   0.06     0.05  -0.00  -0.03     0.09  -0.07  -0.09
   3   8    -0.10   0.10   0.00     0.06  -0.05   0.01     0.18   0.01   0.08
   4  15    -0.06   0.20  -0.12     0.05  -0.09   0.07     0.03  -0.11   0.17
   5  16     0.13   0.10   0.06    -0.05  -0.03  -0.03    -0.03  -0.06  -0.04
   6   8     0.09  -0.04  -0.05    -0.04  -0.01   0.01    -0.07  -0.02   0.06
   7   6    -0.00  -0.13  -0.01    -0.01   0.06  -0.01    -0.03   0.10   0.02
   8   6     0.05  -0.01   0.10    -0.04   0.01  -0.08    -0.06   0.02  -0.12
   9  16    -0.14  -0.11  -0.13    -0.02   0.14   0.17    -0.19   0.26   0.25
  10   6     0.36   0.01   0.07    -0.15   0.06  -0.04    -0.02   0.20  -0.17
  11  16    -0.18  -0.26  -0.18    -0.07  -0.12  -0.01     0.08  -0.39  -0.23
  12  15    -0.21  -0.05   0.06    -0.03   0.01  -0.04    -0.12  -0.05  -0.06
  13  16     0.10   0.05  -0.05     0.06  -0.02  -0.11    -0.02   0.09  -0.12
  14   8     0.04   0.09   0.18     0.35   0.25   0.24    -0.05  -0.05  -0.03
  15   6    -0.07   0.11   0.06    -0.25   0.15   0.10     0.05  -0.05   0.02
  16   6    -0.03   0.06  -0.01    -0.08   0.18  -0.00     0.04  -0.09   0.01
  17   8     0.18   0.03   0.02     0.08  -0.06  -0.24     0.08   0.11   0.33
  18   6     0.10   0.02   0.02     0.04  -0.22  -0.02     0.12   0.23   0.13
  19   6     0.02  -0.10  -0.04     0.09  -0.19   0.01    -0.05  -0.03  -0.07
  20   1     0.02   0.16   0.04    -0.00  -0.03  -0.01     0.02   0.03  -0.02
  21   1     0.09  -0.09  -0.03    -0.01   0.02   0.00     0.03  -0.01  -0.04
  22   1    -0.16  -0.04   0.05     0.03   0.01  -0.01    -0.00  -0.01  -0.01
  23   1    -0.01  -0.03   0.02     0.01   0.00  -0.01     0.06  -0.04  -0.03
  24   1    -0.05  -0.02   0.02     0.02   0.00  -0.01    -0.00  -0.03  -0.04
  25   1    -0.03  -0.03   0.02     0.01   0.02  -0.02     0.01   0.03  -0.02
  26   1    -0.01  -0.07  -0.02    -0.00   0.04   0.01    -0.00   0.05   0.02
  27   1    -0.01  -0.02   0.18    -0.01   0.01  -0.07    -0.03   0.02  -0.09
  28   1    -0.02  -0.08  -0.06    -0.00   0.02  -0.00    -0.02   0.02  -0.03
  29   1     0.09   0.13  -0.00    -0.02  -0.05  -0.01    -0.00  -0.06  -0.03
  30   1     0.21   0.15  -0.03    -0.08  -0.04  -0.00    -0.01   0.04  -0.05
  31   1     0.17  -0.08   0.18    -0.07   0.05  -0.05    -0.01   0.07  -0.03
  32   1    -0.03   0.03   0.01    -0.14  -0.03  -0.04     0.02  -0.00   0.01
  33   1    -0.03   0.04   0.03    -0.14   0.10   0.13     0.03  -0.02  -0.01
  34   1    -0.03   0.03   0.02    -0.15   0.18   0.11     0.03  -0.04  -0.00
  35   1     0.02   0.04  -0.02     0.19   0.15  -0.06    -0.01  -0.03  -0.01
  36   1    -0.01  -0.02  -0.01    -0.05  -0.15  -0.07     0.02  -0.02   0.01
  37   1     0.02   0.02   0.00     0.02  -0.06   0.04     0.02   0.08  -0.02
  38   1     0.03   0.01   0.01    -0.01  -0.10  -0.02     0.07   0.11   0.05
  39   1     0.03  -0.01  -0.00    -0.01  -0.11  -0.01     0.02  -0.01  -0.01
  40   1    -0.06  -0.03   0.00     0.07  -0.03  -0.05    -0.12   0.01  -0.03
  41   1     0.02  -0.08  -0.05     0.02  -0.02   0.05     0.01  -0.09  -0.07
                     31                     32                     33
                        a                      a                      a 
 Frequencies --   321.3785               331.6037               336.8969
 Red. masses --    16.0405                15.6892                18.7452
 Frc consts  --     0.0000                 0.0000                 0.0000
 IR Inten    --    14.6298                 6.9319                 6.4565
 Raman Activ --     0.0000                 0.0000                 0.0000
 Depolar     --     0.0000                 0.0000                 0.0000
 Atom AN      X      Y      Z        X      Y      Z        X      Y      Z
   1   6     0.13  -0.01  -0.19    -0.07   0.01   0.08    -0.07   0.01   0.08
   2   6     0.14  -0.13  -0.20     0.04   0.09   0.07     0.04   0.08   0.07
   3   8     0.35   0.11   0.19    -0.09  -0.27  -0.12    -0.08  -0.25  -0.12
   4  15    -0.11  -0.09   0.01     0.21  -0.13  -0.24     0.23  -0.14  -0.11
   5  16    -0.05  -0.18   0.03    -0.12   0.03   0.09    -0.10   0.05   0.05
   6   8    -0.11   0.39   0.17     0.11   0.40  -0.03     0.10   0.21  -0.03
   7   6    -0.05  -0.06   0.28    -0.03  -0.12   0.12    -0.05  -0.04   0.05
   8   6     0.05  -0.02   0.11     0.05  -0.02   0.14    -0.01  -0.00   0.01
   9  16    -0.19   0.04  -0.33    -0.03   0.00  -0.09    -0.13   0.16   0.18
  10   6    -0.03   0.03  -0.01    -0.11  -0.03   0.04     0.07   0.14  -0.15
  11  16    -0.00   0.05   0.03    -0.10  -0.02   0.09     0.13  -0.18  -0.22
  12  15     0.01   0.01   0.05     0.09   0.01  -0.15    -0.10  -0.05   0.18
  13  16     0.03  -0.03   0.06    -0.09   0.06  -0.16     0.12  -0.05   0.19
  14   8    -0.02  -0.00   0.02     0.18   0.06  -0.06    -0.20  -0.09   0.06
  15   6    -0.01   0.02  -0.01    -0.01  -0.04   0.03     0.01   0.04  -0.05
  16   6    -0.01   0.03  -0.01     0.02  -0.05   0.01    -0.03   0.06  -0.01
  17   8     0.01  -0.03  -0.12    -0.08   0.05   0.27     0.15  -0.05  -0.27
  18   6    -0.05  -0.06  -0.05     0.12   0.11   0.12    -0.14  -0.06  -0.15
  19   6     0.00   0.03   0.03    -0.01  -0.13  -0.07    -0.01   0.20   0.07
  20   1     0.07   0.09  -0.03    -0.06  -0.08  -0.02    -0.06  -0.08  -0.02
  21   1     0.10  -0.04  -0.11    -0.09   0.05   0.09    -0.09   0.04   0.08
  22   1    -0.02  -0.02  -0.03     0.04   0.02   0.01     0.04   0.02   0.01
  23   1     0.12  -0.10  -0.08    -0.07   0.09   0.03    -0.06   0.08   0.03
  24   1    -0.03  -0.07  -0.09     0.10   0.06   0.03     0.09   0.06   0.03
  25   1    -0.06  -0.01   0.16    -0.07  -0.03   0.14    -0.05  -0.01   0.07
  26   1    -0.02  -0.10   0.05    -0.03  -0.13  -0.02    -0.02  -0.06  -0.02
  27   1     0.01  -0.01   0.11     0.02  -0.02   0.15    -0.01  -0.01   0.05
  28   1    -0.02  -0.03  -0.04    -0.01  -0.05  -0.03    -0.02  -0.02  -0.04
  29   1     0.09   0.05   0.01     0.07   0.10   0.01     0.04   0.04  -0.01
  30   1    -0.01   0.04   0.01    -0.05  -0.03   0.02     0.03   0.05  -0.05
  31   1     0.00  -0.01   0.01    -0.05   0.01  -0.02     0.03   0.03  -0.01
  32   1    -0.00   0.01  -0.00    -0.02  -0.05  -0.01     0.03   0.05   0.01
  33   1    -0.00   0.00  -0.01    -0.03   0.01   0.05     0.03  -0.01  -0.06
  34   1    -0.00   0.01  -0.01    -0.02   0.01   0.03     0.02  -0.00  -0.03
  35   1    -0.01   0.00   0.01     0.05   0.01  -0.02    -0.05  -0.01   0.03
  36   1    -0.00   0.02   0.00     0.00  -0.06  -0.01    -0.01   0.08   0.01
  37   1    -0.01  -0.02   0.00     0.03   0.03  -0.01    -0.04  -0.01   0.01
  38   1    -0.02  -0.03  -0.02     0.06   0.07   0.05    -0.06  -0.05  -0.05
  39   1    -0.01   0.02   0.01     0.04  -0.04  -0.02    -0.05   0.09   0.02
  40   1     0.04  -0.00   0.02    -0.11  -0.02  -0.03     0.11   0.03   0.05
  41   1    -0.01   0.04   0.02     0.02  -0.12  -0.07    -0.03   0.14   0.07
                     34                     35                     36
                        a                      a                      a 
 Frequencies --   355.5632               423.7842               442.8238
 Red. masses --    19.6037                19.8265                21.5108
 Frc consts  --     0.0000                 0.0000                 0.0000
 IR Inten    --     9.1477                45.4203               125.9579
 Raman Activ --     0.0000                 0.0000                 0.0000
 Depolar     --     0.0000                 0.0000                 0.0000
 Atom AN      X      Y      Z        X      Y      Z        X      Y      Z
   1   6    -0.01   0.00   0.01     0.03   0.00  -0.05    -0.04  -0.01   0.06
   2   6     0.01   0.01   0.00    -0.03  -0.00  -0.03     0.07  -0.03   0.03
   3   8    -0.00  -0.03  -0.01     0.05   0.11   0.11     0.02   0.05  -0.11
   4  15     0.01  -0.02  -0.03    -0.20   0.08  -0.27    -0.04   0.01  -0.04
   5  16    -0.02   0.00   0.01    -0.11  -0.19  -0.02    -0.02  -0.04   0.00
   6   8     0.01   0.05  -0.00    -0.32   0.23  -0.23     0.14  -0.03   0.08
   7   6    -0.01  -0.00   0.01     0.15  -0.19  -0.22    -0.05   0.06   0.09
   8   6    -0.00   0.00   0.01     0.13  -0.02   0.24    -0.04   0.01  -0.07
   9  16    -0.01   0.01   0.03     0.26   0.03   0.41     0.03  -0.04  -0.04
  10   6     0.06   0.05  -0.04     0.01   0.04   0.02     0.00   0.01   0.05
  11  16     0.41   0.20   0.03     0.09  -0.01  -0.03     0.29   0.25   0.11
  12  15    -0.36   0.26   0.08    -0.07  -0.09  -0.00    -0.30  -0.36  -0.00
  13  16    -0.02  -0.05  -0.15    -0.01   0.01  -0.05    -0.07   0.04  -0.31
  14   8    -0.31  -0.00   0.09     0.02  -0.03   0.05     0.16  -0.22   0.32
  15   6     0.04   0.08   0.11    -0.01  -0.01  -0.03    -0.02  -0.05  -0.19
  16   6     0.05  -0.11  -0.01    -0.01   0.03  -0.00    -0.08   0.20  -0.02
  17   8    -0.13   0.06  -0.13     0.04  -0.01   0.03     0.12  -0.06   0.15
  18   6     0.14  -0.20   0.11    -0.01   0.02  -0.01    -0.04   0.08  -0.00
  19   6     0.10  -0.39  -0.05    -0.01   0.04   0.00    -0.05   0.11  -0.00
  20   1    -0.01  -0.01  -0.00     0.03   0.01   0.01    -0.03   0.02  -0.02
  21   1    -0.01   0.00   0.01     0.03  -0.01  -0.04    -0.02  -0.01   0.04
  22   1     0.00   0.00   0.00     0.01  -0.00  -0.02    -0.03  -0.00   0.04
  23   1    -0.00   0.01   0.00     0.02  -0.02  -0.02     0.03  -0.02   0.01
  24   1     0.01   0.01   0.00    -0.03  -0.01  -0.01     0.00  -0.01   0.01
  25   1    -0.01  -0.00   0.01     0.06  -0.06  -0.05    -0.03   0.02   0.04
  26   1    -0.00  -0.01  -0.00     0.05  -0.03  -0.04    -0.02  -0.00   0.01
  27   1    -0.00  -0.00   0.01     0.10  -0.03   0.16    -0.03   0.01  -0.05
  28   1    -0.00  -0.00  -0.00     0.10  -0.02   0.17    -0.04   0.01  -0.06
  29   1     0.00   0.01   0.00    -0.11   0.12   0.07     0.04  -0.04  -0.02
  30   1    -0.00   0.00   0.00    -0.02  -0.06  -0.00    -0.03  -0.02   0.03
  31   1     0.02   0.01  -0.05    -0.02   0.04  -0.04    -0.00   0.00  -0.05
  32   1     0.03   0.08   0.06    -0.00   0.00  -0.01     0.00   0.02  -0.04
  33   1     0.05  -0.01  -0.02    -0.00  -0.00  -0.01    -0.01  -0.00  -0.07
  34   1     0.06  -0.10  -0.02    -0.01   0.02  -0.00    -0.06   0.13  -0.03
  35   1    -0.06  -0.03  -0.06     0.00   0.00   0.02     0.02   0.02   0.12
  36   1     0.04  -0.03   0.02    -0.01   0.02  -0.00    -0.05   0.14  -0.01
  37   1     0.05  -0.07   0.05    -0.00   0.01  -0.00    -0.02   0.03  -0.01
  38   1     0.02  -0.09   0.02    -0.00   0.01  -0.00    -0.00   0.04   0.01
  39   1     0.06  -0.17  -0.02    -0.01   0.02   0.00    -0.01   0.05   0.00
  40   1    -0.05  -0.07  -0.07     0.01   0.01   0.00     0.00   0.02   0.02
  41   1     0.05  -0.17  -0.03    -0.00   0.02   0.00    -0.02   0.05  -0.00
                     37                     38                     39
                        a                      a                      a 
 Frequencies --   448.4346               476.3691               485.6617
 Red. masses --    15.5632                16.3217                18.9026
 Frc consts  --     0.0000                 0.0000                 0.0000
 IR Inten    --     6.1771                69.8945               119.5365
 Raman Activ --     0.0000                 0.0000                 0.0000
 Depolar     --     0.0000                 0.0000                 0.0000
 Atom AN      X      Y      Z        X      Y      Z        X      Y      Z
   1   6     0.16   0.03  -0.23    -0.03  -0.00   0.04    -0.06  -0.01   0.08
   2   6    -0.34   0.13  -0.07     0.09  -0.03   0.00     0.23  -0.07  -0.00
   3   8    -0.08  -0.31   0.45     0.00   0.02  -0.12    -0.00  -0.03  -0.34
   4  15     0.20  -0.08   0.14     0.04  -0.02   0.11     0.14  -0.11   0.37
   5  16     0.11   0.24   0.03     0.03   0.05  -0.01     0.13   0.23  -0.02
   6   8    -0.10  -0.04  -0.10    -0.16   0.02  -0.02    -0.50   0.04  -0.06
   7   6     0.06  -0.06  -0.13     0.04  -0.03  -0.04     0.10  -0.08  -0.12
   8   6     0.04  -0.01   0.05     0.03  -0.00   0.05     0.09  -0.01   0.13
   9  16    -0.17  -0.01  -0.15    -0.04   0.01  -0.02    -0.16  -0.02  -0.19
  10   6    -0.01   0.00  -0.01     0.00  -0.02  -0.03     0.00  -0.04  -0.00
  11  16     0.07   0.06   0.05    -0.13  -0.13  -0.04     0.07   0.07   0.04
  12  15    -0.07  -0.07   0.01     0.09   0.40   0.00    -0.05  -0.15   0.01
  13  16    -0.02   0.01  -0.09     0.06  -0.07   0.11    -0.03   0.02  -0.09
  14   8     0.04  -0.08   0.11     0.14  -0.38   0.25    -0.04   0.09  -0.03
  15   6    -0.00  -0.02  -0.06     0.04  -0.22  -0.33    -0.02   0.07   0.09
  16   6    -0.02   0.06  -0.01    -0.07   0.19  -0.03     0.01  -0.04   0.01
  17   8     0.02  -0.01   0.03    -0.22   0.16  -0.10     0.08  -0.05   0.04
  18   6    -0.01   0.02   0.01     0.06   0.02   0.10    -0.02  -0.00  -0.03
  19   6    -0.01   0.02  -0.00     0.03  -0.11  -0.01    -0.01   0.04   0.00
  20   1     0.14  -0.07   0.11    -0.03   0.01  -0.03    -0.08   0.03  -0.09
  21   1     0.08   0.03  -0.17    -0.02  -0.00   0.04    -0.05  -0.00   0.10
  22   1     0.14   0.02  -0.18    -0.03  -0.00   0.03    -0.06  -0.01   0.09
  23   1    -0.14   0.09  -0.04     0.03  -0.01   0.01     0.06  -0.02   0.02
  24   1     0.01   0.08  -0.03     0.01  -0.01   0.00     0.05  -0.03   0.00
  25   1     0.03  -0.02  -0.06     0.03  -0.01  -0.03     0.08  -0.03  -0.09
  26   1     0.02   0.01  -0.02     0.02   0.02   0.01     0.06   0.05   0.04
  27   1     0.03  -0.01   0.04     0.02  -0.01   0.03     0.07  -0.02   0.07
  28   1     0.04  -0.01   0.06     0.02  -0.00   0.04     0.07  -0.00   0.12
  29   1    -0.05   0.04   0.02    -0.03   0.02   0.02    -0.08   0.06   0.04
  30   1    -0.01   0.02   0.01     0.02   0.02  -0.02     0.00   0.03   0.01
  31   1     0.01  -0.01  -0.01     0.01  -0.01   0.03     0.01  -0.03  -0.00
  32   1     0.00   0.01  -0.01     0.03   0.00  -0.06    -0.01   0.01   0.02
  33   1    -0.00  -0.00  -0.03     0.02  -0.05  -0.13    -0.01   0.02   0.03
  34   1    -0.02   0.04  -0.01    -0.07   0.16  -0.04     0.02  -0.04   0.01
  35   1     0.01   0.01   0.04     0.04  -0.00   0.18    -0.01   0.00  -0.05
  36   1    -0.02   0.05  -0.00    -0.07   0.18  -0.02     0.02  -0.04   0.01
  37   1    -0.00   0.01  -0.00     0.03  -0.01   0.03    -0.01   0.01  -0.01
  38   1     0.00   0.01   0.00     0.01  -0.02   0.02    -0.00   0.01  -0.01
  39   1    -0.00   0.01   0.00     0.02  -0.08  -0.01    -0.01   0.02   0.00
  40   1     0.00   0.01   0.00    -0.05   0.00  -0.05     0.02   0.00   0.01
  41   1    -0.00   0.01   0.00     0.02  -0.07  -0.01    -0.01   0.03   0.01
                     40                     41                     42
                        a                      a                      a 
 Frequencies --   610.7953               620.4115               668.3756
 Red. masses --    25.7748                26.3951                18.3721
 Frc consts  --     0.0000                 0.0000                 0.0000
 IR Inten    --   252.1648                82.2438                 7.0567
 Raman Activ --     0.0000                 0.0000                 0.0000
 Depolar     --     0.0000                 0.0000                 0.0000
 Atom AN      X      Y      Z        X      Y      Z        X      Y      Z
   1   6    -0.01  -0.00   0.03     0.01   0.00  -0.02     0.00  -0.00   0.00
   2   6    -0.14   0.05   0.05     0.07  -0.02  -0.02    -0.01   0.01   0.00
   3   8    -0.07   0.28  -0.03     0.03  -0.13   0.02    -0.00   0.03   0.01
   4  15     0.38   0.14   0.34    -0.20  -0.06  -0.20    -0.02  -0.06  -0.06
   5  16    -0.29  -0.41  -0.08     0.14   0.19   0.04     0.03   0.04   0.01
   6   8     0.17   0.13  -0.15    -0.08  -0.07   0.08    -0.01  -0.02   0.01
   7   6     0.03  -0.04  -0.16    -0.02   0.02   0.09    -0.00   0.01   0.03
   8   6    -0.01   0.00  -0.02     0.00  -0.00   0.01     0.00  -0.00   0.00
   9  16    -0.08   0.05  -0.07     0.05   0.00   0.07    -0.11   0.42   0.03
  10   6     0.05  -0.11  -0.09     0.04   0.02  -0.10    -0.05  -0.61   0.45
  11  16    -0.04  -0.01   0.04    -0.09  -0.06   0.01     0.15  -0.00  -0.35
  12  15     0.21   0.06   0.14     0.46   0.16   0.28     0.02   0.03   0.08
  13  16    -0.10   0.01  -0.24    -0.20   0.01  -0.46    -0.02   0.00  -0.05
  14   8    -0.11  -0.05   0.12    -0.23  -0.11   0.22     0.01   0.00  -0.03
  15   6    -0.02   0.06   0.04    -0.04   0.10   0.08     0.00  -0.02  -0.01
  16   6    -0.01   0.02  -0.01    -0.02   0.04  -0.02     0.00  -0.00   0.00
  17   8     0.03  -0.08   0.06     0.05  -0.15   0.12     0.00  -0.00   0.01
  18   6    -0.02  -0.04  -0.03    -0.05  -0.08  -0.07    -0.00  -0.01  -0.01
  19   6     0.00   0.00   0.00     0.01   0.00  -0.00    -0.00  -0.00  -0.00
  20   1     0.02  -0.01   0.05    -0.01   0.01  -0.02     0.00  -0.00   0.01
  21   1     0.01  -0.01  -0.01    -0.00   0.00   0.00     0.00  -0.00  -0.00
  22   1     0.00  -0.00  -0.02    -0.00   0.00   0.01     0.00  -0.00  -0.00
  23   1     0.00  -0.02   0.01    -0.00   0.01  -0.00     0.00  -0.00   0.00
  24   1    -0.09  -0.01   0.02     0.04   0.00  -0.01    -0.01  -0.00   0.00
  25   1    -0.01  -0.01   0.00     0.00   0.00   0.00     0.00   0.00   0.00
  26   1    -0.00  -0.04  -0.08     0.00   0.02   0.04    -0.00   0.00   0.01
  27   1     0.01  -0.01   0.03    -0.00   0.00  -0.02    -0.00   0.00  -0.00
  28   1     0.02  -0.02   0.03    -0.01   0.01  -0.02    -0.00   0.00  -0.00
  29   1    -0.05   0.04  -0.00     0.03  -0.03   0.00     0.01  -0.01   0.00
  30   1     0.02   0.01  -0.02     0.01  -0.00  -0.03     0.00  -0.15   0.11
  31   1     0.02  -0.03   0.00     0.00   0.02   0.00    -0.04  -0.13   0.10
  32   1     0.00   0.05   0.02     0.00   0.09   0.05    -0.00  -0.01  -0.01
  33   1     0.01   0.01  -0.01     0.02   0.01  -0.02     0.00  -0.01  -0.00
  34   1     0.01  -0.00  -0.01     0.01  -0.01  -0.01    -0.00   0.00  -0.00
  35   1    -0.01   0.01  -0.02    -0.03   0.02  -0.03     0.00  -0.00   0.01
  36   1     0.01  -0.00   0.00     0.01  -0.00   0.00    -0.00   0.00  -0.00
  37   1    -0.01  -0.01  -0.02    -0.02  -0.02  -0.03    -0.00  -0.00  -0.00
  38   1     0.00   0.00  -0.00    -0.00   0.01  -0.01    -0.00  -0.00  -0.00
  39   1    -0.00   0.02   0.00    -0.01   0.04   0.01    -0.00   0.00   0.00
  40   1     0.03  -0.01   0.01     0.05  -0.03   0.04     0.01  -0.00   0.00
  41   1    -0.01   0.02  -0.00    -0.01   0.03   0.01    -0.00   0.00  -0.00
                     43                     44                     45
                        a                      a                      a 
 Frequencies --   696.8216               730.3296               733.8947
 Red. masses --    16.6263                19.5706                19.6887
 Frc consts  --     0.0000                 0.0000                 0.0000
 IR Inten    --    51.6349               265.3788                60.3852
 Raman Activ --     0.0000                 0.0000                 0.0000
 Depolar     --     0.0000                 0.0000                 0.0000
 Atom AN      X      Y      Z        X      Y      Z        X      Y      Z
   1   6    -0.00  -0.00   0.00     0.01   0.00  -0.03    -0.03  -0.00   0.07
   2   6    -0.02   0.00   0.01     0.10  -0.04  -0.03    -0.22   0.10   0.06
   3   8    -0.00   0.01  -0.02     0.01  -0.17   0.01    -0.03   0.39  -0.03
   4  15     0.03   0.02   0.10    -0.18   0.11   0.15     0.39  -0.27  -0.33
   5  16    -0.02  -0.03  -0.01    -0.00  -0.01  -0.00     0.01   0.02   0.01
   6   8     0.04   0.03  -0.03     0.13   0.07  -0.05    -0.30  -0.14   0.10
   7   6     0.01  -0.01  -0.05     0.02  -0.02  -0.10    -0.05   0.04   0.22
   8   6    -0.01   0.00  -0.01    -0.02   0.01  -0.02     0.04  -0.02   0.06
   9  16     0.07  -0.29  -0.07    -0.00   0.01   0.00     0.01  -0.04   0.00
  10   6    -0.38   0.46   0.54     0.05  -0.02  -0.07    -0.01   0.08  -0.03
  11  16     0.13  -0.05  -0.35    -0.03  -0.01   0.04    -0.01  -0.01   0.02
  12  15     0.07   0.07   0.08    -0.27   0.34   0.34    -0.13   0.15   0.15
  13  16    -0.03  -0.00  -0.06    -0.03   0.00  -0.11    -0.01   0.00  -0.05
  14   8    -0.02  -0.02  -0.00     0.23   0.16  -0.28     0.10   0.07  -0.13
  15   6    -0.00   0.00   0.00     0.09  -0.20  -0.18     0.04  -0.09  -0.08
  16   6    -0.00   0.00  -0.00     0.04  -0.08   0.03     0.02  -0.04   0.01
  17   8     0.01  -0.03   0.03     0.16  -0.18   0.22     0.08  -0.08   0.10
  18   6    -0.02  -0.03  -0.02    -0.09  -0.17  -0.13    -0.04  -0.07  -0.05
  19   6     0.00  -0.01  -0.00     0.01  -0.04  -0.01     0.00  -0.02  -0.01
  20   1     0.00  -0.00   0.00    -0.02   0.01  -0.05     0.04  -0.03   0.11
  21   1    -0.00   0.00  -0.00    -0.01   0.01   0.01     0.03  -0.03  -0.01
  22   1     0.00   0.00  -0.00    -0.00   0.00   0.03     0.01  -0.01  -0.06
  23   1    -0.00  -0.00   0.00    -0.01   0.02  -0.01     0.02  -0.05   0.01
  24   1    -0.00  -0.00   0.00     0.07   0.01  -0.00    -0.17  -0.02   0.01
  25   1    -0.00  -0.00  -0.00    -0.02  -0.00   0.01     0.04   0.00  -0.02
  26   1    -0.00  -0.01  -0.02    -0.00  -0.04  -0.05     0.00   0.09   0.12
  27   1     0.00  -0.00   0.01    -0.01   0.00   0.01     0.01  -0.00  -0.03
  28   1     0.01  -0.00   0.01     0.01  -0.02   0.02    -0.03   0.03  -0.03
  29   1    -0.02   0.01  -0.00    -0.04   0.03  -0.01     0.09  -0.06   0.01
  30   1    -0.03   0.16   0.09     0.01  -0.00  -0.01    -0.01   0.01  -0.01
  31   1    -0.05   0.05   0.18     0.01   0.00  -0.01     0.00   0.02  -0.01
  32   1    -0.00   0.00   0.00    -0.02  -0.13  -0.10    -0.01  -0.06  -0.04
  33   1     0.00  -0.01  -0.00    -0.02  -0.03   0.03    -0.01  -0.01   0.01
  34   1     0.00   0.00  -0.00    -0.02   0.02   0.02    -0.01   0.01   0.01
  35   1    -0.00   0.00  -0.00     0.05  -0.05   0.11     0.02  -0.02   0.05
  36   1    -0.00   0.00  -0.00    -0.03   0.03  -0.02    -0.01   0.02  -0.01
  37   1    -0.01  -0.01  -0.01    -0.04  -0.02  -0.07    -0.02  -0.01  -0.03
  38   1    -0.00  -0.00  -0.00     0.01   0.01  -0.02     0.01   0.01  -0.01
  39   1    -0.00   0.01   0.00    -0.00   0.06   0.01     0.00   0.03   0.00
  40   1     0.02  -0.01   0.01     0.11  -0.07   0.07     0.05  -0.03   0.03
  41   1    -0.00   0.01   0.00    -0.03   0.08   0.00    -0.02   0.04   0.00
                     46                     47                     48
                        a                      a                      a 
 Frequencies --   764.2555               774.4237               803.3410
 Red. masses --    22.8139                20.6416                 5.7725
 Frc consts  --     0.0000                 0.0000                 0.0000
 IR Inten    --   258.4330               354.9039                 6.9397
 Raman Activ --     0.0000                 0.0000                 0.0000
 Depolar     --     0.0000                 0.0000                 0.0000
 Atom AN      X      Y      Z        X      Y      Z        X      Y      Z
   1   6    -0.02  -0.00   0.07    -0.00  -0.00   0.01    -0.00  -0.00   0.01
   2   6    -0.14   0.08   0.04    -0.02   0.01   0.01    -0.02   0.00   0.01
   3   8     0.02   0.31  -0.06     0.01   0.05  -0.01     0.01   0.01  -0.02
   4  15    -0.28  -0.62   0.14    -0.04  -0.10   0.02     0.01   0.02   0.03
   5  16     0.16   0.23   0.04     0.02   0.03   0.01     0.00   0.00   0.00
   6   8     0.29   0.21  -0.08     0.05   0.03  -0.02     0.00   0.00  -0.01
   7   6     0.06  -0.03  -0.20     0.01  -0.00  -0.03     0.00   0.00   0.00
   8   6    -0.05   0.02  -0.07    -0.01   0.00  -0.01     0.00  -0.00   0.00
   9  16     0.03   0.01   0.02     0.01  -0.02   0.00    -0.11  -0.07  -0.08
  10   6    -0.00   0.02  -0.04     0.02   0.04  -0.03     0.46   0.15   0.26
  11  16    -0.01  -0.00   0.02    -0.03  -0.01  -0.00    -0.10  -0.05  -0.09
  12  15    -0.00   0.04  -0.09     0.07  -0.29   0.56     0.01   0.03   0.01
  13  16     0.01  -0.00   0.03    -0.08   0.01  -0.21     0.00  -0.00   0.01
  14   8    -0.02  -0.02   0.03     0.08   0.14  -0.18    -0.02  -0.03   0.00
  15   6    -0.01   0.02   0.02     0.06  -0.09  -0.10    -0.00   0.02   0.01
  16   6    -0.01   0.01  -0.00     0.03  -0.05   0.02    -0.00   0.01  -0.00
  17   8     0.02  -0.03   0.06    -0.18   0.22  -0.37     0.00  -0.01   0.01
  18   6    -0.02  -0.03  -0.02     0.13   0.20   0.12     0.00   0.00  -0.00
  19   6     0.00  -0.01  -0.00    -0.00   0.07   0.03     0.00  -0.00  -0.00
  20   1     0.02  -0.02   0.08     0.00  -0.00   0.01     0.00  -0.00   0.01
  21   1     0.02  -0.03   0.02     0.00  -0.00   0.00     0.00   0.00  -0.00
  22   1    -0.00  -0.01  -0.05    -0.00  -0.00  -0.01     0.00   0.00   0.00
  23   1     0.04  -0.06   0.02     0.01  -0.01   0.00    -0.00   0.00  -0.00
  24   1    -0.15  -0.03  -0.01    -0.02  -0.00  -0.00    -0.00   0.00   0.00
  25   1    -0.06   0.00   0.04    -0.01   0.00   0.01     0.00  -0.00   0.00
  26   1    -0.00  -0.12  -0.12     0.00  -0.03  -0.02    -0.00   0.00  -0.00
  27   1    -0.03   0.00   0.03    -0.01   0.00   0.01     0.00  -0.00   0.00
  28   1     0.03  -0.04   0.04     0.01  -0.01   0.01    -0.00   0.00   0.00
  29   1    -0.09   0.07  -0.02    -0.02   0.01  -0.00     0.00   0.00   0.00
  30   1    -0.00  -0.01  -0.01    -0.00   0.00  -0.00    -0.27  -0.42   0.27
  31   1     0.00   0.00  -0.01     0.00   0.02  -0.00    -0.15   0.36  -0.42
  32   1     0.01   0.02   0.01    -0.04  -0.08  -0.08    -0.00   0.01   0.00
  33   1     0.00   0.00  -0.01    -0.02  -0.02   0.06     0.00  -0.00   0.00
  34   1     0.00   0.00  -0.01    -0.00  -0.01   0.04     0.00  -0.00   0.00
  35   1    -0.00   0.01  -0.01     0.02  -0.03   0.06    -0.01   0.00  -0.01
  36   1     0.01  -0.00   0.00    -0.04   0.02  -0.02    -0.00   0.00  -0.00
  37   1    -0.01  -0.00  -0.03     0.07   0.00   0.15     0.00  -0.00   0.00
  38   1     0.02   0.00   0.00    -0.08  -0.03  -0.00    -0.01   0.00  -0.00
  39   1     0.00   0.01   0.00    -0.03  -0.08  -0.01    -0.01   0.01  -0.00
  40   1     0.03  -0.01   0.01    -0.17   0.09  -0.08     0.00  -0.00   0.00
  41   1    -0.01   0.02  -0.01     0.06  -0.14   0.02     0.00  -0.00   0.01
                     49                     50                     51
                        a                      a                      a 
 Frequencies --   820.6558               820.5837               822.7036
 Red. masses --     2.7091                 2.5412                 2.9131
 Frc consts  --     0.0000                 0.0000                 0.0000
 IR Inten    --     2.3652                 3.4955                13.2312
 Raman Activ --     0.0000                 0.0000                 0.0000
 Depolar     --     0.0000                 0.0000                 0.0000
 Atom AN      X      Y      Z        X      Y      Z        X      Y      Z
   1   6     0.00   0.01   0.00    -0.01  -0.02   0.00     0.01   0.05  -0.00
   2   6     0.00   0.02   0.00    -0.02  -0.05  -0.00     0.04   0.10   0.01
   3   8     0.00  -0.01   0.00     0.01   0.04  -0.01    -0.02  -0.07   0.01
   4  15    -0.05  -0.03   0.03    -0.03  -0.03   0.01     0.01   0.03   0.00
   5  16     0.01   0.01   0.00     0.01   0.01   0.00    -0.00  -0.01  -0.00
   6   8     0.14   0.10   0.01     0.07   0.06   0.01    -0.00  -0.01   0.01
   7   6    -0.16  -0.19  -0.00    -0.08  -0.10   0.00     0.01   0.01  -0.01
   8   6    -0.08  -0.07   0.00    -0.04  -0.04   0.00     0.00   0.00  -0.00
   9  16     0.00   0.00  -0.00     0.00   0.00  -0.00    -0.00   0.01  -0.00
  10   6     0.00  -0.00  -0.00    -0.00  -0.01  -0.00    -0.01  -0.01  -0.00
  11  16    -0.00  -0.00   0.00     0.01   0.00  -0.00     0.01   0.00   0.00
  12  15    -0.01  -0.00   0.02     0.02   0.00  -0.04    -0.02   0.06  -0.09
  13  16    -0.00   0.00  -0.01     0.00  -0.00   0.01     0.01  -0.00   0.03
  14   8     0.04   0.05  -0.03    -0.08  -0.09   0.05    -0.04  -0.06   0.04
  15   6    -0.09  -0.06   0.02     0.18   0.11  -0.04     0.09   0.06  -0.01
  16   6    -0.04  -0.03   0.02     0.07   0.05  -0.03     0.03   0.03  -0.02
  17   8    -0.01   0.00   0.02     0.01  -0.00  -0.03    -0.00  -0.05   0.14
  18   6     0.04   0.01  -0.05    -0.05  -0.01   0.07     0.13   0.03  -0.18
  19   6     0.01   0.00  -0.02    -0.02  -0.00   0.03     0.05   0.01  -0.08
  20   1    -0.00  -0.01   0.00     0.01   0.03   0.01    -0.01  -0.06  -0.01
  21   1     0.00  -0.02   0.02    -0.01   0.04  -0.06     0.03  -0.09   0.14
  22   1    -0.01  -0.01  -0.03     0.02   0.02   0.08    -0.05  -0.04  -0.16
  23   1     0.02  -0.02   0.02    -0.04   0.05  -0.05     0.09  -0.11   0.12
  24   1    -0.02  -0.01  -0.02     0.05   0.02   0.07    -0.11  -0.05  -0.15
  25   1     0.38  -0.14  -0.10     0.20  -0.08  -0.05    -0.02   0.01   0.00
  26   1    -0.14   0.40  -0.02    -0.07   0.21  -0.01     0.01  -0.02   0.00
  27   1     0.37  -0.11   0.05     0.19  -0.06   0.03    -0.02   0.00  -0.00
  28   1    -0.17   0.33  -0.11    -0.09   0.17  -0.06     0.01  -0.01   0.01
  29   1     0.07   0.11  -0.04     0.04   0.06  -0.02    -0.01  -0.00   0.00
  30   1     0.00  -0.00  -0.00     0.00   0.00  -0.00     0.00   0.01  -0.00
  31   1    -0.00   0.00   0.00     0.00  -0.01   0.00     0.00  -0.01   0.01
  32   1     0.14   0.01   0.14    -0.29  -0.01  -0.28    -0.14  -0.00  -0.13
  33   1     0.02   0.05  -0.19    -0.03  -0.10   0.38    -0.01  -0.05   0.19
  34   1    -0.01   0.10  -0.14     0.02  -0.20   0.29     0.01  -0.10   0.14
  35   1     0.06   0.02  -0.01    -0.11  -0.05   0.03    -0.06  -0.02   0.01
  36   1     0.14  -0.05   0.11    -0.27   0.10  -0.22    -0.13   0.05  -0.11
  37   1     0.04  -0.04   0.09    -0.05   0.06  -0.12     0.14  -0.16   0.33
  38   1    -0.11   0.01  -0.03     0.14  -0.02   0.04    -0.39   0.06  -0.09
  39   1    -0.09   0.04  -0.01     0.12  -0.06   0.01    -0.33   0.17  -0.03
  40   1    -0.02  -0.01   0.03     0.02   0.02  -0.04    -0.04  -0.07   0.11
  41   1     0.04  -0.06   0.06    -0.05   0.08  -0.08     0.13  -0.21   0.23
                     52                     53                     54
                        a                      a                      a 
 Frequencies --   823.2165               914.2405               916.2993
 Red. masses --     2.8132                12.6079                12.9279
 Frc consts  --     0.0000                 0.0000                 0.0000
 IR Inten    --     3.6122               476.0467               235.6760
 Raman Activ --     0.0000                 0.0000                 0.0000
 Depolar     --     0.0000                 0.0000                 0.0000
 Atom AN      X      Y      Z        X      Y      Z        X      Y      Z
   1   6     0.03   0.11  -0.01     0.07   0.01  -0.15     0.04   0.00  -0.08
   2   6     0.10   0.23   0.02     0.20  -0.02  -0.01     0.11  -0.01  -0.01
   3   8    -0.06  -0.17   0.04    -0.29   0.12   0.18    -0.16   0.07   0.10
   4  15    -0.01   0.08  -0.00     0.13  -0.04  -0.13     0.07  -0.03  -0.07
   5  16    -0.01  -0.01  -0.00    -0.00  -0.00   0.00    -0.00   0.00   0.00
   6   8     0.01  -0.01   0.01     0.01   0.00   0.49     0.00  -0.00   0.26
   7   6    -0.01  -0.01  -0.01     0.03  -0.14  -0.24     0.02  -0.07  -0.13
   8   6    -0.00  -0.00   0.00    -0.12   0.05  -0.18    -0.07   0.03  -0.10
   9  16    -0.00  -0.00  -0.00    -0.01  -0.00  -0.02    -0.00   0.00  -0.01
  10   6     0.01   0.00   0.01     0.01   0.01   0.02    -0.00  -0.00  -0.01
  11  16    -0.00   0.00  -0.00    -0.00  -0.00  -0.01     0.00   0.01   0.01
  12  15     0.01  -0.02   0.03     0.06  -0.09  -0.03    -0.11   0.16   0.07
  13  16    -0.00   0.00  -0.01     0.00   0.00  -0.00    -0.00  -0.00  -0.00
  14   8    -0.00   0.00  -0.01    -0.10   0.18   0.11     0.20  -0.33  -0.21
  15   6     0.00  -0.00  -0.00     0.00  -0.09  -0.09    -0.01   0.16   0.17
  16   6     0.00  -0.00   0.00     0.05  -0.10   0.03    -0.10   0.18  -0.05
  17   8     0.00   0.02  -0.07    -0.02   0.24   0.06     0.03  -0.43  -0.11
  18   6    -0.07  -0.02   0.10    -0.04  -0.09  -0.09     0.07   0.17   0.17
  19   6    -0.03  -0.00   0.04     0.02  -0.08  -0.02    -0.04   0.14   0.03
  20   1    -0.03  -0.13  -0.03    -0.07   0.05  -0.19    -0.04   0.02  -0.11
  21   1     0.06  -0.21   0.32    -0.03   0.01   0.04    -0.02   0.01   0.02
  22   1    -0.12  -0.08  -0.37    -0.04  -0.00   0.05    -0.02  -0.00   0.03
  23   1     0.21  -0.26   0.27     0.01   0.01   0.03     0.00   0.01   0.02
  24   1    -0.24  -0.12  -0.34     0.01  -0.01   0.07     0.00  -0.00   0.04
  25   1     0.02  -0.01  -0.01     0.02  -0.04   0.02     0.01  -0.02   0.01
  26   1    -0.01   0.02  -0.00     0.07  -0.06   0.04     0.03  -0.03   0.02
  27   1     0.02  -0.01   0.00     0.02  -0.01   0.07     0.01  -0.01   0.04
  28   1    -0.01   0.02  -0.01     0.04  -0.01   0.07     0.02  -0.00   0.04
  29   1     0.00   0.01  -0.00    -0.22   0.18  -0.05    -0.12   0.10  -0.03
  30   1    -0.00  -0.01   0.00    -0.01  -0.01   0.01     0.00   0.01  -0.00
  31   1    -0.00   0.00  -0.00    -0.01   0.01  -0.01     0.00  -0.01   0.00
  32   1    -0.01  -0.00  -0.01    -0.02   0.03  -0.03     0.05  -0.06   0.06
  33   1    -0.00  -0.00   0.01    -0.02   0.01  -0.01     0.04  -0.02   0.02
  34   1     0.00  -0.00   0.01    -0.02   0.03   0.01     0.04  -0.05  -0.01
  35   1    -0.00  -0.00   0.00     0.06  -0.06   0.12    -0.11   0.11  -0.22
  36   1    -0.01   0.00  -0.00    -0.01   0.04  -0.00     0.03  -0.07   0.00
  37   1    -0.07   0.09  -0.17    -0.02   0.03  -0.01     0.04  -0.05   0.01
  38   1     0.21  -0.03   0.05    -0.00   0.00  -0.01     0.01  -0.01   0.03
  39   1     0.18  -0.09   0.02     0.00   0.03   0.00     0.00  -0.05  -0.01
  40   1     0.02   0.03  -0.06     0.08  -0.06   0.05    -0.15   0.11  -0.08
  41   1    -0.07   0.11  -0.12    -0.01   0.04   0.00     0.02  -0.06  -0.01
                     55                     56                     57
                        a                      a                      a 
 Frequencies --   935.8498               951.3321              1039.2644
 Red. masses --    11.1455                11.3458                 8.4267
 Frc consts  --     0.0000                 0.0000                 0.0000
 IR Inten    --    99.1501                79.7687               239.4045
 Raman Activ --     0.0000                 0.0000                 0.0000
 Depolar     --     0.0000                 0.0000                 0.0000
 Atom AN      X      Y      Z        X      Y      Z        X      Y      Z
   1   6     0.13   0.02  -0.27     0.00   0.00  -0.00    -0.01  -0.00   0.02
   2   6     0.26  -0.03   0.03     0.00  -0.00   0.00     0.02   0.00  -0.02
   3   8    -0.42   0.18   0.27    -0.01   0.01   0.01    -0.02   0.00   0.01
   4  15     0.00  -0.16   0.05     0.00  -0.00  -0.00     0.00   0.00  -0.00
   5  16     0.01   0.01   0.00     0.00   0.00  -0.00    -0.00  -0.00   0.00
   6   8     0.04  -0.00  -0.40     0.00  -0.00   0.00    -0.00   0.01   0.04
   7   6    -0.05   0.12   0.14    -0.00   0.00  -0.00    -0.03   0.01  -0.06
   8   6     0.12  -0.06   0.17     0.00   0.00   0.00     0.03  -0.01   0.04
   9  16     0.01  -0.02   0.01    -0.00   0.00  -0.00    -0.00  -0.00  -0.00
  10   6     0.00   0.02   0.00    -0.00  -0.00   0.02     0.00   0.01   0.00
  11  16    -0.00  -0.00  -0.00     0.01   0.01  -0.01    -0.00  -0.01  -0.00
  12  15     0.00  -0.00   0.00     0.03   0.11  -0.16     0.01   0.01  -0.02
  13  16     0.00  -0.00  -0.00     0.01   0.00   0.01     0.00   0.00   0.00
  14   8    -0.00  -0.00  -0.00    -0.20   0.32   0.19    -0.03   0.10   0.08
  15   6    -0.00   0.00   0.00    -0.04  -0.07  -0.16     0.10  -0.22   0.01
  16   6    -0.00   0.00  -0.00     0.12  -0.25   0.06    -0.08   0.16  -0.04
  17   8    -0.00   0.01   0.00     0.07  -0.52  -0.10     0.06   0.18   0.17
  18   6     0.00  -0.00  -0.01     0.09   0.12   0.17     0.15  -0.50  -0.12
  19   6     0.00  -0.00  -0.00    -0.05   0.21   0.04    -0.18   0.37   0.01
  20   1    -0.12   0.07  -0.35    -0.00   0.00  -0.01     0.01  -0.01   0.03
  21   1    -0.06   0.01   0.09    -0.00   0.00   0.00     0.01  -0.00  -0.01
  22   1    -0.07  -0.01   0.07    -0.00  -0.00   0.00     0.01   0.00  -0.00
  23   1    -0.00   0.01   0.08    -0.00   0.00   0.00     0.01   0.00  -0.01
  24   1    -0.01  -0.01   0.12    -0.00  -0.00   0.00     0.01   0.00  -0.01
  25   1    -0.03   0.04  -0.03     0.00  -0.00  -0.00    -0.02   0.01  -0.02
  26   1    -0.07   0.05  -0.06    -0.00   0.00  -0.00    -0.01   0.01  -0.02
  27   1    -0.02   0.01  -0.07    -0.00   0.00  -0.00    -0.00   0.00  -0.01
  28   1    -0.04   0.01  -0.07     0.00  -0.00  -0.00    -0.01  -0.00  -0.01
  29   1     0.21  -0.17   0.04     0.00  -0.00   0.00     0.04  -0.03   0.01
  30   1    -0.01   0.00   0.01    -0.00  -0.01   0.00    -0.00  -0.00   0.00
  31   1     0.00   0.00  -0.01    -0.01   0.01   0.00    -0.00   0.00  -0.00
  32   1    -0.00  -0.00  -0.00    -0.06   0.09  -0.05     0.04  -0.08   0.01
  33   1     0.00  -0.00   0.00    -0.06   0.07  -0.04     0.03  -0.08   0.03
  34   1     0.00  -0.00   0.00    -0.05   0.09   0.00     0.03  -0.05  -0.01
  35   1    -0.00   0.00  -0.00     0.15  -0.14   0.29    -0.09   0.08  -0.17
  36   1    -0.00  -0.00  -0.00    -0.02   0.09   0.01     0.01  -0.06  -0.01
  37   1     0.00   0.00   0.00     0.06  -0.10   0.00     0.07  -0.18   0.01
  38   1    -0.00   0.00  -0.00     0.03  -0.03   0.02     0.10  -0.19  -0.03
  39   1    -0.00   0.00   0.00    -0.00  -0.08  -0.01    -0.02  -0.10  -0.03
  40   1     0.01  -0.00   0.00    -0.23   0.16  -0.12    -0.31   0.23  -0.18
  41   1    -0.00   0.00   0.00     0.04  -0.10  -0.01    -0.00  -0.08  -0.08
                     58                     59                     60
                        a                      a                      a 
 Frequencies --  1041.5518              1057.9745              1060.5514
 Red. masses --     8.6184                 9.8295                10.3899
 Frc consts  --     0.0000                 0.0000                 0.0000
 IR Inten    --   179.7912               123.1228                80.7487
 Raman Activ --     0.0000                 0.0000                 0.0000
 Depolar     --     0.0000                 0.0000                 0.0000
 Atom AN      X      Y      Z        X      Y      Z        X      Y      Z
   1   6     0.09   0.01  -0.19     0.12   0.00  -0.30     0.01  -0.00  -0.01
   2   6    -0.18  -0.00   0.24    -0.34   0.02   0.41    -0.02   0.00   0.02
   3   8     0.15  -0.03  -0.05     0.34  -0.08  -0.15     0.02  -0.00  -0.01
   4  15    -0.01   0.01   0.01    -0.01   0.03  -0.01     0.00   0.00  -0.00
   5  16    -0.00  -0.00  -0.00     0.00   0.00  -0.00     0.00   0.00   0.00
   6   8    -0.00  -0.08  -0.29    -0.02   0.05   0.23    -0.00   0.00   0.01
   7   6     0.22  -0.05   0.46    -0.13   0.02  -0.28    -0.01  -0.00  -0.01
   8   6    -0.20   0.10  -0.28     0.11  -0.05   0.14     0.01  -0.00   0.01
   9  16     0.00  -0.00   0.01    -0.01   0.01  -0.01     0.00   0.00   0.00
  10   6    -0.00   0.00  -0.00    -0.00  -0.01  -0.00    -0.00   0.00  -0.01
  11  16     0.00  -0.00   0.00     0.00   0.00   0.00    -0.01  -0.00   0.00
  12  15     0.00   0.00  -0.00     0.00  -0.00  -0.00    -0.03  -0.00   0.05
  13  16     0.00   0.00   0.00    -0.00   0.00   0.00    -0.00  -0.00   0.00
  14   8    -0.00   0.01   0.01    -0.00   0.01   0.01     0.14  -0.34  -0.22
  15   6     0.01  -0.03  -0.00     0.01  -0.02   0.00    -0.23   0.51   0.01
  16   6    -0.01   0.02  -0.00    -0.01   0.01  -0.01     0.17  -0.27   0.08
  17   8     0.01   0.02   0.02    -0.00  -0.01  -0.00    -0.01   0.18   0.10
  18   6     0.02  -0.07  -0.01    -0.01   0.02   0.00     0.10  -0.26  -0.06
  19   6    -0.03   0.05  -0.00     0.01  -0.01   0.00    -0.11   0.14  -0.02
  20   1    -0.08   0.04  -0.22    -0.11   0.07  -0.33    -0.00   0.00  -0.01
  21   1    -0.05   0.01   0.06    -0.07   0.03   0.06    -0.00   0.00   0.00
  22   1    -0.06  -0.01   0.03    -0.09  -0.01   0.05    -0.00  -0.00   0.00
  23   1    -0.04  -0.02   0.11    -0.05  -0.04   0.16    -0.00  -0.00   0.01
  24   1    -0.05  -0.00   0.09    -0.10  -0.00   0.15    -0.01  -0.00   0.01
  25   1     0.13  -0.04   0.12    -0.07   0.02  -0.07    -0.00   0.00  -0.00
  26   1     0.10  -0.04   0.16    -0.05   0.02  -0.08    -0.00   0.00  -0.01
  27   1     0.02  -0.01   0.11    -0.01   0.00  -0.05    -0.00   0.00  -0.00
  28   1     0.04   0.03   0.10    -0.02  -0.02  -0.05    -0.00  -0.00  -0.00
  29   1    -0.30   0.25  -0.07     0.15  -0.13   0.03     0.01  -0.01   0.00
[...]
  33   1     0.01   0.00   0.00    -0.01  -0.00  -0.00    -0.05  -0.03   0.02
  34   1    -0.00  -0.00  -0.00     0.00   0.00   0.00    -0.01  -0.01  -0.01
  35   1     0.00   0.00  -0.00    -0.00   0.00   0.00    -0.00   0.02   0.00
  36   1    -0.00  -0.00   0.00    -0.00  -0.00   0.00    -0.06  -0.02   0.08
  37   1    -0.88  -0.33   0.14    -0.02  -0.01   0.00    -0.00  -0.00   0.00
  38   1     0.07   0.05  -0.19     0.00   0.00  -0.01     0.00  -0.00   0.00
  39   1    -0.00  -0.00  -0.00    -0.00   0.00  -0.00    -0.00  -0.00  -0.00
  40   1     0.00   0.01   0.01     0.00   0.00   0.00     0.00   0.00   0.00
  41   1     0.06   0.02  -0.01     0.00   0.00  -0.00     0.00   0.00  -0.00
                    103                    104                    105
                        a                      a                      a 
 Frequencies --  2979.0886              2979.4941              2983.2118
 Red. masses --     1.7213                 1.7318                 2.0122
 Frc consts  --     0.0000                 0.0000                 0.0000
 IR Inten    --     8.5119                 9.3426                11.3646
 Raman Activ --     0.0000                 0.0000                 0.0000
 Depolar     --     0.0000                 0.0000                 0.0000
 Atom AN      X      Y      Z        X      Y      Z        X      Y      Z
   1   6    -0.00   0.00   0.00     0.01  -0.03  -0.00     0.00  -0.00   0.00
   2   6     0.01  -0.03   0.01    -0.09   0.23  -0.05    -0.00   0.00  -0.00
   3   8     0.00  -0.00  -0.00    -0.01   0.00   0.00     0.00   0.00   0.00
   4  15     0.00   0.00  -0.00     0.00  -0.00  -0.00    -0.00   0.00  -0.00
   5  16     0.00   0.00  -0.00     0.00  -0.00  -0.00    -0.00  -0.00  -0.00
   6   8    -0.00   0.00   0.01    -0.00   0.00   0.00     0.00   0.00   0.00
   7   6    -0.22  -0.04   0.12    -0.03  -0.01   0.02    -0.00  -0.00   0.00
   8   6     0.03   0.01  -0.02     0.00   0.00  -0.00     0.00   0.00  -0.00
   9  16    -0.00  -0.00  -0.00     0.00   0.00   0.00     0.00   0.00   0.00
  10   6    -0.00  -0.00  -0.00    -0.00  -0.00  -0.00     0.27   0.11   0.08
  11  16    -0.00   0.00   0.00    -0.00   0.00   0.00     0.00   0.00  -0.00
  12  15     0.00   0.00  -0.00     0.00  -0.00  -0.00     0.00   0.00  -0.00
  13  16     0.00  -0.00   0.00    -0.00   0.00   0.00    -0.00  -0.00  -0.00
  14   8     0.00  -0.00  -0.00     0.00  -0.00  -0.00     0.00   0.00   0.00
  15   6     0.00   0.00  -0.00     0.00   0.00  -0.00     0.00   0.00  -0.00
  16   6    -0.00  -0.00   0.00    -0.00  -0.00   0.00     0.00   0.00  -0.00
  17   8    -0.00  -0.00   0.00    -0.00   0.00   0.00     0.00  -0.00   0.00
  18   6     0.00   0.00  -0.00     0.00  -0.00   0.00    -0.00  -0.00   0.00
  19   6    -0.00  -0.00  -0.00    -0.00  -0.00  -0.00     0.00   0.00  -0.00
  20   1     0.00   0.00  -0.00    -0.02  -0.00   0.01    -0.00   0.00   0.00
  21   1    -0.00  -0.00  -0.00     0.01   0.01   0.01    -0.00  -0.00  -0.00
  22   1     0.01  -0.02   0.00    -0.04   0.13  -0.02    -0.00   0.00  -0.00
  23   1     0.00  -0.00   0.00    -0.00   0.04  -0.00     0.00   0.00   0.00
  24   1    -0.05   0.12  -0.02     0.34  -0.87   0.15     0.00  -0.01   0.00
  25   1    -0.04  -0.03   0.01    -0.00  -0.00   0.00    -0.00  -0.00   0.00
  26   1     0.80   0.17  -0.47     0.11   0.02  -0.06     0.01   0.00  -0.01
  27   1     0.00  -0.01  -0.01     0.00  -0.00  -0.00     0.00  -0.00  -0.00
  28   1    -0.12  -0.03   0.07    -0.01  -0.00   0.01    -0.00  -0.00   0.00
  29   1     0.01   0.01   0.02     0.00   0.00   0.00     0.00  -0.00   0.00
  30   1     0.00  -0.00   0.00     0.00  -0.00   0.00    -0.28   0.11  -0.32
  31   1     0.01   0.01  -0.00     0.01   0.01  -0.00    -0.67  -0.52   0.03
  32   1    -0.00  -0.00   0.01    -0.00  -0.00   0.01    -0.00  -0.00   0.00
  33   1    -0.00  -0.00  -0.00    -0.00  -0.00  -0.00    -0.00  -0.00  -0.00
  34   1     0.00   0.00   0.00     0.00   0.00   0.00    -0.00  -0.00  -0.00
  35   1    -0.00   0.00   0.00    -0.00  -0.00  -0.00     0.00  -0.00  -0.00
  36   1     0.00   0.00  -0.00     0.00   0.00  -0.00    -0.00  -0.00   0.00
  37   1    -0.00  -0.00   0.00    -0.00  -0.00   0.00     0.00   0.00  -0.00
  38   1    -0.00  -0.00   0.00     0.00   0.00  -0.00     0.00   0.00  -0.00
  39   1    -0.00  -0.00   0.00    -0.00  -0.00   0.00    -0.00  -0.00   0.00
  40   1    -0.00   0.00   0.00    -0.00   0.00   0.00     0.00   0.00  -0.00
  41   1     0.00   0.00  -0.00     0.00   0.00  -0.00    -0.00  -0.00   0.00
                    106                    107                    108
                        a                      a                      a 
 Frequencies --  3017.4142              3021.1217              3025.6006
 Red. masses --     1.7573                 1.7661                 1.7924
 Frc consts  --     0.0000                 0.0000                 0.0000
 IR Inten    --    48.3803                55.5444                47.4993
 Raman Activ --     0.0000                 0.0000                 0.0000
 Depolar     --     0.0000                 0.0000                 0.0000
 Atom AN      X      Y      Z        X      Y      Z        X      Y      Z
   1   6     0.00  -0.01   0.00     0.06  -0.25   0.03    -0.00   0.01  -0.00
   2   6     0.00  -0.00   0.00     0.01  -0.04   0.01    -0.00   0.00  -0.00
   3   8     0.00  -0.00   0.00     0.00  -0.00  -0.00    -0.00   0.00   0.00
   4  15    -0.00   0.00  -0.00    -0.00  -0.00   0.00     0.00  -0.00   0.00
   5  16     0.00  -0.00   0.00     0.00   0.00  -0.00    -0.00  -0.00  -0.00
   6   8     0.00  -0.00   0.00    -0.00   0.00   0.00     0.00   0.00  -0.00
   7   6    -0.04  -0.01   0.02     0.00   0.00  -0.00    -0.00  -0.00   0.00
   8   6    -0.21  -0.07   0.12     0.01   0.00  -0.01    -0.00   0.00  -0.00
   9  16    -0.00   0.00  -0.00     0.00   0.00  -0.00    -0.00   0.00  -0.00
  10   6     0.00   0.00  -0.00    -0.00   0.00  -0.00    -0.00  -0.00  -0.00
  11  16    -0.00  -0.00   0.00    -0.00  -0.00   0.00    -0.00  -0.00   0.00
  12  15     0.00   0.00   0.00     0.00   0.00  -0.00    -0.00   0.00  -0.00
  13  16     0.00   0.00  -0.00     0.00  -0.00  -0.00     0.00  -0.00  -0.00
  14   8    -0.00   0.00  -0.00    -0.00   0.00   0.00     0.00  -0.00  -0.00
  15   6     0.00   0.00  -0.00     0.00   0.00  -0.00     0.03   0.01  -0.02
  16   6    -0.00   0.00  -0.00     0.01   0.00  -0.00     0.19   0.06  -0.18
  17   8    -0.00   0.00  -0.00     0.00  -0.00   0.00    -0.00   0.00   0.00
  18   6    -0.00  -0.00   0.00    -0.00  -0.00  -0.00    -0.00  -0.00   0.00
  19   6    -0.00  -0.00   0.00    -0.00  -0.00   0.00     0.00   0.00  -0.00
  20   1     0.00  -0.00  -0.00     0.01  -0.03   0.00    -0.00   0.00   0.00
  21   1     0.00   0.00   0.00     0.07   0.02   0.03    -0.00   0.00  -0.00
  22   1    -0.02   0.05  -0.01    -0.30   0.89  -0.14     0.01  -0.02   0.00
  23   1    -0.00  -0.00  -0.00     0.01   0.01   0.01    -0.00  -0.00  -0.00
  24   1    -0.00   0.01  -0.00    -0.05   0.12  -0.02     0.00  -0.01   0.00
  25   1     0.00   0.01   0.00     0.00  -0.00  -0.00    -0.00   0.00  -0.00
  26   1     0.12   0.03  -0.07    -0.01  -0.00   0.00     0.00   0.00  -0.00
  27   1    -0.01   0.05   0.03     0.00  -0.00  -0.00    -0.00  -0.00  -0.00
  28   1     0.80   0.20  -0.47    -0.05  -0.01   0.03     0.00   0.00  -0.00
  29   1    -0.03  -0.01   0.02     0.00   0.00  -0.00     0.00   0.00   0.00
  30   1     0.00  -0.00   0.00     0.00  -0.00   0.00     0.00  -0.00   0.00
  31   1    -0.00  -0.00   0.00    -0.00  -0.00  -0.00     0.00   0.00  -0.00
  32   1    -0.00  -0.00   0.00    -0.00  -0.00   0.00    -0.07  -0.02   0.08
  33   1    -0.00  -0.00  -0.00    -0.00  -0.00  -0.00    -0.02  -0.01  -0.01
  34   1     0.00   0.00   0.00    -0.00  -0.00  -0.00    -0.09  -0.07  -0.07
  35   1     0.00  -0.00  -0.00     0.00   0.00  -0.00     0.03   0.00  -0.02
  36   1    -0.00  -0.00   0.00    -0.02  -0.00   0.02    -0.59  -0.15   0.72
  37   1     0.00   0.00  -0.00     0.00   0.00  -0.00     0.00   0.00  -0.00
  38   1     0.00   0.00  -0.00    -0.00  -0.00   0.00     0.00   0.00  -0.00
  39   1    -0.00  -0.00  -0.00     0.00   0.00  -0.00    -0.00  -0.00   0.00
  40   1    -0.00   0.00   0.00    -0.00  -0.00   0.00    -0.00  -0.00  -0.00
  41   1     0.02   0.01  -0.00     0.01   0.00  -0.00    -0.00  -0.00  -0.00
                    109                    110                    111
                        a                      a                      a 
 Frequencies --  3042.8539              3044.7979              3047.4767
 Red. masses --     1.7703                 1.6222                 1.6327
 Frc consts  --     0.0000                 0.0000                 0.0000
 IR Inten    --    28.9993                18.1884                20.1974
 Raman Activ --     0.0000                 0.0000                 0.0000
 Depolar     --     0.0000                 0.0000                 0.0000
 Atom AN      X      Y      Z        X      Y      Z        X      Y      Z
   1   6     0.00  -0.00  -0.00     0.00   0.00   0.00    -0.16  -0.14  -0.10
   2   6     0.00  -0.00  -0.00     0.00  -0.00   0.00    -0.01  -0.01  -0.01
   3   8     0.00  -0.00  -0.00     0.00   0.00  -0.00     0.00  -0.00   0.00
   4  15    -0.00  -0.00  -0.00     0.00  -0.00   0.00    -0.00  -0.00  -0.00
   5  16    -0.00  -0.00   0.00    -0.00   0.00   0.00    -0.00  -0.00  -0.00
   6   8     0.00   0.00   0.00     0.00   0.00   0.00     0.00  -0.00  -0.00
   7   6    -0.00  -0.00   0.00     0.00   0.00  -0.00    -0.00  -0.00   0.00
   8   6    -0.00  -0.01   0.00     0.00   0.00   0.00    -0.00  -0.01  -0.00
   9  16    -0.00   0.00  -0.00    -0.00   0.00  -0.00     0.00  -0.00   0.00
  10   6    -0.00  -0.00  -0.00     0.00  -0.00   0.00     0.00   0.00   0.00
  11  16     0.00  -0.00  -0.00    -0.00  -0.00  -0.00    -0.00   0.00  -0.00
  12  15     0.00   0.00  -0.00    -0.00   0.00  -0.00     0.00   0.00   0.00
  13  16     0.00   0.00   0.00     0.00  -0.00   0.00    -0.00  -0.00   0.00
  14   8     0.00  -0.00  -0.00     0.00   0.00   0.00     0.00  -0.00  -0.00
  15   6     0.00   0.00   0.00    -0.02  -0.01  -0.01    -0.00  -0.00  -0.00
  16   6     0.01   0.00   0.00    -0.18  -0.11  -0.11    -0.00  -0.00  -0.00
  17   8    -0.00   0.00   0.00    -0.00   0.00   0.00    -0.00  -0.00  -0.00
  18   6     0.02   0.01  -0.01     0.00   0.00  -0.00     0.00   0.00  -0.00
  19   6     0.23   0.08  -0.08     0.01   0.00  -0.00    -0.00  -0.00   0.00
  20   1    -0.01   0.00   0.00     0.00  -0.00  -0.00    -0.10  -0.01   0.04
  21   1    -0.00  -0.00  -0.00    -0.01  -0.01  -0.00     0.66   0.61   0.32
  22   1    -0.00   0.01  -0.00    -0.00   0.00  -0.00     0.01  -0.10   0.00
  23   1     0.00   0.00   0.00     0.00   0.00   0.00     0.03   0.03   0.01
  24   1    -0.00   0.00  -0.00    -0.00   0.00  -0.00    -0.00   0.01  -0.00
  25   1     0.00   0.00   0.00    -0.00  -0.00  -0.00     0.00   0.00   0.00
  26   1     0.01   0.00  -0.00    -0.00  -0.00   0.00     0.00   0.00  -0.00
  27   1     0.01   0.03   0.00    -0.00  -0.01  -0.00     0.01   0.04   0.01
  28   1     0.01   0.00  -0.01     0.00   0.00  -0.00    -0.00  -0.00   0.00
  29   1    -0.00  -0.00  -0.00     0.00   0.00   0.00    -0.00  -0.00  -0.00
  30   1     0.00  -0.00   0.00    -0.00   0.00  -0.00    -0.00   0.00  -0.00
  31   1     0.00   0.00  -0.00     0.00   0.00  -0.00    -0.00  -0.00   0.00
  32   1     0.00   0.00  -0.00    -0.00  -0.00  -0.00     0.00   0.00  -0.00
  33   1    -0.00  -0.00  -0.00     0.04   0.02   0.01     0.00   0.00   0.00
  34   1    -0.03  -0.02  -0.01     0.76   0.48   0.31     0.01   0.00   0.00
  35   1    -0.00   0.01   0.00    -0.01  -0.06  -0.03     0.00  -0.00  -0.00
  36   1     0.00   0.00  -0.00    -0.12  -0.04   0.10    -0.00  -0.00  -0.00
  37   1    -0.05  -0.02   0.01    -0.00  -0.00   0.00    -0.00  -0.00   0.00
  38   1    -0.00  -0.00   0.01    -0.00  -0.00   0.00    -0.00  -0.00   0.00
  39   1     0.01  -0.01   0.13    -0.00  -0.00   0.01     0.00   0.00  -0.01
  40   1     0.04   0.05   0.01     0.00   0.00   0.00     0.00   0.00   0.00
  41   1    -0.88  -0.34   0.14    -0.03  -0.01   0.01    -0.00  -0.00   0.00
                    112                    113                    114
                        a                      a                      a 
 Frequencies --  3047.7789              3052.3564              3055.9198
 Red. masses --     1.6227                 1.5804                 1.7869
 Frc consts  --     0.0000                 0.0000                 0.0000
 IR Inten    --    16.2656                15.9087                 9.4049
 Raman Activ --     0.0000                 0.0000                 0.0000
 Depolar     --     0.0000                 0.0000                 0.0000
 Atom AN      X      Y      Z        X      Y      Z        X      Y      Z
   1   6     0.01   0.01   0.00    -0.00  -0.00  -0.00     0.00   0.00  -0.00
   2   6     0.00   0.00   0.00    -0.00  -0.00  -0.00     0.00  -0.00   0.00
   3   8    -0.00   0.00  -0.00     0.00  -0.00   0.00    -0.00   0.00  -0.00
   4  15     0.00  -0.00   0.00     0.00   0.00  -0.00    -0.00  -0.00   0.00
   5  16    -0.00  -0.00   0.00     0.00   0.00   0.00    -0.00  -0.00   0.00
   6   8    -0.00   0.00   0.00    -0.00  -0.00  -0.00    -0.00   0.00   0.00
   7   6    -0.01  -0.02   0.00     0.00   0.00  -0.00     0.00  -0.01  -0.01
   8   6    -0.04  -0.23  -0.01    -0.00  -0.01  -0.02    -0.04  -0.07  -0.25
   9  16     0.00  -0.00   0.00    -0.00  -0.00  -0.00     0.00  -0.00  -0.00
  10   6    -0.00   0.00  -0.00    -0.00   0.00  -0.00     0.00  -0.00   0.00
  11  16    -0.00  -0.00  -0.00     0.00   0.00  -0.00    -0.00  -0.00  -0.00
  12  15    -0.00   0.00  -0.00     0.00  -0.00  -0.00     0.00   0.00  -0.00
  13  16     0.00  -0.00   0.00    -0.00   0.00  -0.00    -0.00   0.00  -0.00
  14   8     0.00  -0.00  -0.00    -0.00   0.00   0.00     0.00  -0.00  -0.00
  15   6    -0.00  -0.00  -0.00     0.00   0.00   0.00    -0.00   0.00  -0.00
  16   6    -0.00  -0.00  -0.00     0.00   0.00   0.00    -0.00   0.00   0.00
  17   8     0.00  -0.00  -0.00     0.00   0.00  -0.00    -0.00  -0.00   0.00
  18   6    -0.00  -0.00   0.00     0.00   0.01  -0.02    -0.00  -0.00   0.00
  19   6    -0.01  -0.01   0.00     0.01   0.06  -0.22    -0.00  -0.00   0.01
  20   1     0.00   0.00   0.00    -0.00   0.00   0.00    -0.01   0.00   0.00
  21   1    -0.03  -0.03  -0.02     0.01   0.01   0.00    -0.00  -0.00  -0.00
  22   1     0.00   0.00  -0.00    -0.00  -0.00  -0.00    -0.00   0.00  -0.00
  23   1    -0.00  -0.00  -0.00     0.00   0.00   0.00    -0.00  -0.00  -0.00
  24   1     0.00   0.00   0.00    -0.00   0.00  -0.00    -0.00   0.00  -0.00
  25   1     0.01   0.04   0.00    -0.00  -0.00  -0.00     0.00   0.01   0.00
  26   1     0.01   0.00  -0.00    -0.00  -0.00   0.00    -0.02  -0.00   0.01
  27   1     0.23   0.91   0.14     0.01   0.02   0.00     0.03   0.12  -0.01
  28   1    -0.06  -0.04   0.03    -0.00  -0.00  -0.00    -0.01  -0.01  -0.03
  29   1    -0.03  -0.05  -0.13     0.01   0.01   0.05     0.13   0.16   0.93
  30   1     0.00  -0.00   0.00     0.00  -0.00   0.00    -0.00   0.00  -0.00
  31   1    -0.00  -0.00  -0.00     0.00   0.00   0.00     0.00   0.00   0.00
  32   1    -0.00  -0.00   0.00     0.00  -0.00  -0.00    -0.00  -0.00   0.00
  33   1     0.00   0.00   0.00    -0.00  -0.00  -0.00     0.00   0.00   0.00
  34   1     0.01   0.01   0.01    -0.01  -0.00  -0.00     0.00   0.00   0.00
  35   1    -0.00  -0.00  -0.00     0.00  -0.00  -0.00     0.00  -0.01  -0.00
  36   1    -0.00  -0.00   0.00     0.00   0.00  -0.00    -0.00   0.00   0.00
  37   1     0.00   0.00  -0.00    -0.00  -0.00  -0.00     0.00   0.00   0.00
  38   1     0.00   0.00  -0.00    -0.01  -0.01   0.04     0.00   0.00  -0.00
  39   1     0.00   0.00  -0.01    -0.13  -0.14   0.93     0.01   0.01  -0.06
  40   1     0.00   0.02   0.01    -0.01  -0.12  -0.10     0.00   0.01   0.01
  41   1     0.02   0.01  -0.00     0.13   0.05  -0.05    -0.00  -0.00   0.00
                    115                    116                    117
                        a                      a                      a 
 Frequencies --  3057.1690              3058.4327              3061.6496
 Red. masses --     1.7692                 1.7528                 1.8175
 Frc consts  --     0.0000                 0.0000                 0.0000
 IR Inten    --    12.7315                10.4139                 9.6655
 Raman Activ --     0.0000                 0.0000                 0.0000
 Depolar     --     0.0000                 0.0000                 0.0000
 Atom AN      X      Y      Z        X      Y      Z        X      Y      Z
   1   6     0.23  -0.02  -0.12     0.02  -0.00  -0.01     0.00  -0.00  -0.00
   2   6     0.01  -0.00  -0.00     0.00  -0.00   0.00     0.00   0.00  -0.00
   3   8    -0.00  -0.00  -0.00    -0.00   0.00  -0.00    -0.00  -0.00  -0.00
   4  15     0.00   0.00  -0.00    -0.00  -0.00   0.00    -0.00  -0.00   0.00
   5  16    -0.00   0.00   0.00     0.00   0.00  -0.00     0.00   0.00  -0.00
   6   8     0.00  -0.00  -0.00     0.00   0.00  -0.00     0.00   0.00   0.00
   7   6    -0.00   0.00   0.00    -0.00   0.00   0.00    -0.00  -0.00   0.00
   8   6    -0.00   0.00   0.00     0.00   0.00   0.00    -0.00  -0.00  -0.00
   9  16    -0.00   0.00  -0.00     0.00   0.00   0.00     0.00   0.00   0.00
  10   6    -0.00  -0.00   0.00    -0.00  -0.00  -0.00    -0.00  -0.00  -0.00
  11  16     0.00  -0.00  -0.00     0.00   0.00   0.00    -0.00  -0.00   0.00
  12  15    -0.00  -0.00   0.00     0.00   0.00  -0.00     0.00  -0.00   0.00
  13  16     0.00   0.00  -0.00    -0.00  -0.00  -0.00    -0.00  -0.00  -0.00
  14   8     0.00   0.00   0.00    -0.00  -0.00  -0.00    -0.00   0.00   0.00
  15   6    -0.00  -0.00  -0.00    -0.00   0.01   0.01    -0.00  -0.00  -0.00
  16   6     0.00  -0.02  -0.01    -0.07   0.23   0.10     0.00  -0.01  -0.00
  17   8     0.00   0.00   0.00    -0.00   0.00   0.00    -0.00  -0.00  -0.00
  18   6    -0.00  -0.00   0.00     0.00   0.00   0.00     0.01   0.01   0.01
  19   6    -0.00  -0.00  -0.00     0.00   0.00   0.00     0.04   0.22   0.16
  20   1    -0.82   0.13   0.47    -0.05   0.01   0.03    -0.01   0.00   0.01
  21   1    -0.04  -0.06  -0.05    -0.00  -0.01  -0.00     0.00  -0.00  -0.00
  22   1     0.03   0.00  -0.01     0.00   0.00  -0.00     0.00   0.00  -0.00
  23   1    -0.01  -0.01  -0.00    -0.00  -0.00  -0.00    -0.00  -0.00  -0.00
  24   1    -0.01   0.02  -0.00    -0.00   0.00  -0.00     0.00  -0.00   0.00
  25   1    -0.00  -0.00  -0.00    -0.00  -0.00   0.00     0.00   0.00   0.00
  26   1     0.00   0.00  -0.00     0.00   0.00  -0.00     0.00   0.00  -0.00
  27   1    -0.00  -0.01  -0.00    -0.00  -0.00   0.00     0.00   0.02   0.00
  28   1     0.00   0.00  -0.00    -0.00  -0.00   0.00    -0.00  -0.00  -0.00
  29   1    -0.00  -0.00  -0.01    -0.00  -0.00  -0.01     0.00  -0.00   0.00
  30   1    -0.00   0.00  -0.00     0.00   0.00   0.00     0.00  -0.00  -0.00
  31   1     0.00   0.00  -0.00     0.00   0.00  -0.00     0.00  -0.00  -0.00
  32   1     0.00  -0.00  -0.00     0.01   0.00  -0.01    -0.00   0.00   0.00
  33   1     0.00   0.00   0.00    -0.01  -0.01  -0.00     0.00   0.00   0.00
  34   1     0.00   0.00   0.00    -0.05   0.00  -0.00     0.00   0.00   0.00
  35   1    -0.02   0.05   0.02     0.28  -0.84  -0.37    -0.01   0.02   0.01
  36   1     0.00  -0.00  -0.00     0.00   0.03   0.00     0.00  -0.00  -0.00
  37   1     0.00   0.00  -0.00    -0.00  -0.00   0.00    -0.02  -0.01   0.00
  38   1    -0.00   0.00  -0.00     0.00   0.00   0.00     0.00   0.00  -0.01
  39   1    -0.00  -0.00   0.00     0.00   0.00  -0.01     0.03   0.05  -0.12
  40   1     0.00   0.01   0.01    -0.00  -0.02  -0.01    -0.12  -0.82  -0.47
  41   1     0.01   0.00  -0.00    -0.01  -0.00   0.00    -0.05   0.00   0.03
