      -----------------------------------------------------------      
     |                   =====================                   |     
     |                           x T B                           |     
     |                   =====================                   |     
     |                         S. Grimme                         |     
     |          Mulliken Center for Theoretical Chemistry        |     
     |                    University of Bonn                     |     
      -----------------------------------------------------------      

   * xtb version 6.7.1 (edcfbbe) compiled by 'albert@albert-system' on 2024-07-22

   xtb is free software: you can redistribute it and/or modify it under
   the terms of the GNU Lesser General Public License as published by
   the Free Software Foundation, either version 3 of the License, or
   (at your option) any later version.
   
   xtb is distributed in the hope that it will be useful,
   but WITHOUT ANY WARRANTY; without even the implied warranty of
   MERCHANTABILITY or FITNESS FOR A PARTICULAR PURPOSE.  See the
   GNU Lesser General Public License for more details.
   
   Cite this work as:
   * C. Bannwarth, E. Caldeweyher, S. Ehlert, A. Hansen, P. Pracht,
     J. Seibert, S. Spicher, S. Grimme, WIREs Comput. Mol. Sci., 2020, 11,
     e01493. DOI: 10.1002/wcms.1493
   
   for GFN2-xTB:
   * C. Bannwarth, S. Ehlert and S. Grimme., J. Chem. Theory Comput., 2019,
     15, 1652-1671. DOI: 10.1021/acs.jctc.8b01176
   for GFN1-xTB:
   * S. Grimme, C. Bannwarth, P. Shushkov, J. Chem. Theory Comput., 2017,
     13, 1989-2009. DOI: 10.1021/acs.jctc.7b00118
   for GFN0-xTB:
   * P. Pracht, E. Caldeweyher, S. Ehlert, S. Grimme, ChemRxiv, 2019, preprint.
     DOI: 10.26434/chemrxiv.8326202.v1
   for GFN-FF:
   * S. Spicher and S. Grimme, Angew. Chem. Int. Ed., 2020, 59, 15665-15673.
     DOI: 10.1002/anie.202004239
   
   for ALPB and GBSA implicit solvation:
   * S. Ehlert, M. Stahn, S. Spicher, S. Grimme, J. Chem. Theory Comput.,
     2021, 17, 4250-4261. DOI: 10.1021/acs.jctc.1c00471
   
   for ddCOSMO and CPCM-X implicit solvation:
   * M. Stahn, S. Ehlert, S. Grimme, J. Phys. Chem. A,
     2023, XX, XXXX-XXXX. DOI: 10.1021/acs.jpca.3c04382
   
   for DFT-D4:
   * E. Caldeweyher, C. Bannwarth and S. Grimme, J. Chem. Phys., 2017,
     147, 034112. DOI: 10.1063/1.4993215
   * E. Caldeweyher, S. Ehlert, A. Hansen, H. Neugebauer, S. Spicher,
     C. Bannwarth and S. Grimme, J. Chem. Phys., 2019, 150, 154122.
     DOI: 10.1063/1.5090222
   * E. Caldeweyher, J.-M. Mewes, S. Ehlert and S. Grimme, Phys. Chem. Chem. Phys.
     2020, 22, 8499-8512. DOI: 10.1039/D0CP00502A
   
   for sTDA-xTB:
   * S. Grimme and C. Bannwarth, J. Chem. Phys., 2016, 145, 054103.
     DOI: 10.1063/1.4959605
   
   in the mass-spec context:
   * V. Asgeirsson, C. Bauer and S. Grimme, Chem. Sci., 2017, 8, 4879.
     DOI: 10.1039/c7sc00601b
   * J. Koopman and S. Grimme, ACS Omega 2019, 4, 12, 15120-15133.
     DOI: 10.1021/acsomega.9b02011
   
   for metadynamics refer to:
   * S. Grimme, J. Chem. Theory Comput., 2019, 155, 2847-2862
     DOI: 10.1021/acs.jctc.9b00143
   
   for SPH calculations refer to:
   * S. Spicher and S. Grimme, J. Chem. Theory Comput., 2021, 17, 1701-1714
     DOI: 10.1021/acs.jctc.0c01306
   
   for ONIOM refer to:
   * C. Plett, A. Katbashev, S. Ehlert, S. Grimme, M. Bursch,
     Phys. Chem. Chem. Phys., 2023, 25, 17860-17868. DOI: 10.1039/D3CP02178E
   
   for DIPRO refer to:
   * J. Kohn, N. Gildemeister, S. Grimme, D. Fazzi, A. Hansen,
     J. Chem. Phys., 2023, just accepted.
   
   for PTB refer to:
   * S. Grimme, M. Mueller, A. Hansen, J. Chem. Phys., 2023, 158, 124111.
     DOI: 10.1063/5.0137838
   
   with help from (in alphabetical order)
   P. Atkinson, C. Bannwarth, F. Bohle, G. Brandenburg, E. Caldeweyher
   M. Checinski, S. Dohm, S. Ehlert, S. Ehrlich, I. Gerasimov, C. Hölzer
   A. Katbashev, J. Kohn, J. Koopman, C. Lavigne, S. Lehtola, F. März, M. Müller,
   F. Musil, H. Neugebauer, J. Pisarek, C. Plett, P. Pracht, F. Pultar,
   J. Seibert, P. Shushkov, S. Spicher, M. Stahn, M. Steiner, T. Strunk,
   J. Stückrath, T. Rose, and J. Unsleber
   
 * started run on 2025/04/09 at 07:31:33.638     
   ID    Z sym.   atoms
    1    6 C      1, 2, 4, 6, 7, 9, 12, 13, 18, 20
    2    8 O      3, 5, 10, 11, 17, 19
    3    1 H      8, 21-38
    4   16 S      14, 16
    5   15 P      15

           -------------------------------------------------
          |                Calculation Setup                |
           -------------------------------------------------

          program call               : /software/projects/pawsey0265/mwang1/xtb/bin/xtb solv.coord --gfn2 --sp --chrg 0 --norestart --parallel 1 --alpb water reference -I xtb_sp-xcontrol-inp
          hostname                   : nid002043
          coordinate file            : solv.coord
          omp threads                :                     1


           -------------------------------------------------
          |                 G F N 2 - x T B                 |
           -------------------------------------------------

        Reference                      10.1021/acs.jctc.8b01176
      * Hamiltonian:
        H0-scaling (s, p, d)           1.850000    2.230000    2.230000
        zeta-weighting                 0.500000
      * Dispersion:
        s8                             2.700000
        a1                             0.520000
        a2                             5.000000
        s9                             5.000000
      * Repulsion:
        kExp                           1.500000    1.000000
        rExp                           1.000000
      * Coulomb:
        alpha                          2.000000
        third order                    shell-resolved
        anisotropic                    true
        a3                             3.000000
        a5                             4.000000
        cn-shift                       1.200000
        cn-exp                         4.000000
        max-rad                        5.000000

      * Solvation model:               ALPB
        Solvent                        water
        Parameter file                 internal GFN2-xTB/ALPB
        Dielectric constant                8.0200E+01
        Reference state                gsolv=reference [X=1]
        Free energy shift                  2.8945E-03 Eh       1.8164E+00 kcal/mol
        Temperature                        2.9815E+02 K
        Density                            1.0000E+00 kg/L
        Solvent mass                       1.8000E+01 g/mol
        Interaction kernel             P16
        Born radius scaling (c1)           1.4744E+00
        Born radii integrator          GBOBC
        Born offset                        0.0000E+00 a0       0.0000E+00 AA
        H-bond correction              true
        Ion screening                  false
        Surface tension                    1.0000E-05 Eh       1.5569E+01 dyn/cm
        Grid points                               974 per atom

          ...................................................
          :                      SETUP                      :
          :.................................................:
          :  # basis functions                 113          :
          :  # atomic orbitals                 110          :
          :  # shells                           60          :
          :  # electrons                       112          :
          :  max. iterations                   250          :
          :  Hamiltonian                  GFN2-xTB          :
          :  restarted?                      false          :
          :  GBSA solvation                   true          :
          :  PC potential                    false          :
          :  electronic temp.          300.0000000     K    :
          :  accuracy                    1.0000000          :
          :  -> integral cutoff          0.2500000E+02      :
          :  -> integral neglect         0.1000000E-07      :
          :  -> SCF convergence          0.1000000E-05 Eh   :
          :  -> wf. convergence          0.1000000E-03 e    :
          :  Broyden damping             0.4000000          :
          :  net charge                          0          :
          :  unpaired electrons                  0          :
          ...................................................

 iter      E             dE          RMSdq      gap      omega  full diag
   1    -65.0957321 -0.650957E+02  0.581E+00    4.24       0.0  T
   2    -65.2280776 -0.132345E+00  0.308E+00    3.09       1.0  T
   3    -65.2379569 -0.987935E-02  0.123E+00    3.09       1.0  T
   4    -65.2434915 -0.553458E-02  0.449E-01    2.84       1.0  T
   5    -65.2442892 -0.797644E-03  0.197E-01    3.01       1.0  T
   6    -65.2444111 -0.121896E-03  0.919E-02    3.00       1.0  T
   7    -65.2444326 -0.214847E-04  0.326E-02    3.02       1.0  T
   8    -65.2444354 -0.287689E-05  0.147E-02    3.02       1.1  T
   9    -65.2444362 -0.781689E-06  0.476E-03    3.03       3.4  T
  10    -65.2444363 -0.626695E-07  0.273E-03    3.03       5.9  T
  11    -65.2444363 -0.210935E-07  0.759E-04    3.03      21.4  T
  12    -65.2444363 -0.153265E-08  0.383E-04    3.03      42.4  T

   *** convergence criteria satisfied after 12 iterations ***

         #    Occupation            Energy/Eh            Energy/eV
      -------------------------------------------------------------
         1        2.0000           -0.7811975             -21.2575
       ...           ...                  ...                  ...
        50        2.0000           -0.4494336             -12.2297
        51        2.0000           -0.4491832             -12.2229
        52        2.0000           -0.4458531             -12.1323
        53        2.0000           -0.4361541             -11.8684
        54        2.0000           -0.4108884             -11.1808
        55        2.0000           -0.3868034             -10.5255
        56        2.0000           -0.3826802             -10.4133 (HOMO)
        57                         -0.2714160              -7.3856 (LUMO)
        58                         -0.2668947              -7.2626
        59                         -0.2487101              -6.7677
        60                         -0.2129702              -5.7952
        61                         -0.1663951              -4.5278
       ...                                ...                  ...
       110                          1.3991653              38.0732
      -------------------------------------------------------------
                  HL-Gap            0.1112641 Eh            3.0277 eV
             Fermi-level           -0.3270481 Eh           -8.8994 eV

 SCC (total)                   0 d,  0 h,  0 min,  0.116 sec
 SCC setup                      ...        0 min,  0.003 sec (  2.710%)
 Dispersion                     ...        0 min,  0.000 sec (  0.343%)
 classical contributions        ...        0 min,  0.000 sec (  0.069%)
 integral evaluation            ...        0 min,  0.042 sec ( 36.431%)
 iterations                     ...        0 min,  0.035 sec ( 29.904%)
 molecular gradient             ...        0 min,  0.035 sec ( 30.216%)
 printout                       ...        0 min,  0.000 sec (  0.303%)

         :::::::::::::::::::::::::::::::::::::::::::::::::::::
         ::                     SUMMARY                     ::
         :::::::::::::::::::::::::::::::::::::::::::::::::::::
         :: total energy             -64.674260298966 Eh    ::
         :: total w/o Gsasa/hb       -64.674829858113 Eh    ::
         :: gradient norm              0.000040591721 Eh/a0 ::
         :: HOMO-LUMO gap              3.027651584126 eV    ::
         ::.................................................::
         :: SCC energy               -65.243541710042 Eh    ::
         :: -> isotropic ES            0.181662473126 Eh    ::
         :: -> anisotropic ES         -0.025621921258 Eh    ::
         :: -> anisotropic XC          0.016668224924 Eh    ::
         :: -> dispersion             -0.043139721326 Eh    ::
         :: -> Gsolv                  -0.036196930418 Eh    ::
         ::    -> Gelec               -0.036766489565 Eh    ::
         ::    -> Gsasa                0.002887966239 Eh    ::
         ::    -> Ghb                 -0.005212956252 Eh    ::
         ::    -> Gshift               0.002894549160 Eh    ::
         :: repulsion energy           0.569281411075 Eh    ::
         :: add. restraining           0.000000000000 Eh    ::
         :: total charge               0.000000000000 e     ::
         :::::::::::::::::::::::::::::::::::::::::::::::::::::

           -------------------------------------------------
          |                Property Printout                |
           -------------------------------------------------

    * Orbital Energies and Occupations

         #    Occupation            Energy/Eh            Energy/eV
      -------------------------------------------------------------
         1        2.0000           -0.7811975             -21.2575
       ...           ...                  ...                  ...
        44        2.0000           -0.4716357             -12.8339
        45        2.0000           -0.4704543             -12.8017
        46        2.0000           -0.4676144             -12.7244
        47        2.0000           -0.4607399             -12.5374
        48        2.0000           -0.4559840             -12.4080
        49        2.0000           -0.4551814             -12.3861
        50        2.0000           -0.4494336             -12.2297
        51        2.0000           -0.4491832             -12.2229
        52        2.0000           -0.4458531             -12.1323
        53        2.0000           -0.4361541             -11.8684
        54        2.0000           -0.4108884             -11.1808
        55        2.0000           -0.3868034             -10.5255
        56        2.0000           -0.3826802             -10.4133 (HOMO)
        57                         -0.2714160              -7.3856 (LUMO)
        58                         -0.2668947              -7.2626
        59                         -0.2487101              -6.7677
        60                         -0.2129702              -5.7952
        61                         -0.1663951              -4.5278
        62                         -0.1503621              -4.0916
        63                         -0.1182695              -3.2183
        64                         -0.0480133              -1.3065
        65                         -0.0395539              -1.0763
        66                         -0.0336976              -0.9170
        67                         -0.0183738              -0.5000
       ...                                ...                  ...
       110                          1.3991653              38.0732
      -------------------------------------------------------------
                  HL-Gap            0.1112641 Eh            3.0277 eV
             Fermi-level           -0.3270481 Eh           -8.8994 eV

     #   Z          covCN         q      C6AA      α(0)
     1   6 C        3.751    -0.128    23.016     6.842
     2   6 C        3.694     0.072    19.548     6.326
     3   8 O        1.703    -0.252    18.169     5.755
     4   6 C        2.713     0.371    20.716     7.450
     5   8 O        0.856    -0.476    23.265     6.467
     6   6 C        3.830    -0.106    22.507     6.750
     7   6 C        3.850     0.003    20.502     6.440
     8   1 H        0.925     0.142     1.445     1.880
     9   6 C        2.763     0.380    20.576     7.429
    10   8 O        1.092    -0.430    22.158     6.317
    11   8 O        1.703    -0.217    17.604     5.665
    12   6 C        3.693     0.066    19.653     6.343
    13   6 C        3.751    -0.132    23.104     6.855
    14  16 S        1.968    -0.131   146.540    20.374
    15  15 P        3.989     0.323   146.670    21.755
    16  16 S        0.926    -0.472   160.041    21.398
    17   8 O        1.656    -0.261    18.340     5.781
    18   6 C        3.764     0.033    20.065     6.385
    19   8 O        1.658    -0.296    18.939     5.875
    20   6 C        3.772     0.018    20.298     6.420
    21   1 H        0.925     0.073     2.051     2.239
    22   1 H        0.925     0.056     2.244     2.342
    23   1 H        0.925     0.075     2.035     2.231
    24   1 H        0.924     0.056     2.246     2.344
    25   1 H        0.925     0.083     1.946     2.181
    26   1 H        0.925     0.121     1.608     1.983
    27   1 H        0.924     0.128     1.551     1.947
    28   1 H        0.924     0.098     1.800     2.098
    29   1 H        0.924     0.066     2.131     2.283
    30   1 H        0.925     0.064     2.154     2.295
    31   1 H        0.925     0.078     1.995     2.209
    32   1 H        0.925     0.081     1.965     2.192
    33   1 H        0.925     0.098     1.803     2.100
    34   1 H        0.925     0.082     1.961     2.190
    35   1 H        0.924     0.068     2.111     2.272
    36   1 H        0.925     0.077     2.005     2.214
    37   1 H        0.925     0.104     1.750     2.069
    38   1 H        0.925     0.085     1.931     2.173

 Mol. C6AA /au·bohr⁶  :      18225.844829
 Mol. C8AA /au·bohr⁸  :     514523.940538
 Mol. α(0) /au        :        207.867990


Wiberg/Mayer (AO) data.
largest (>0.10) Wiberg bond orders for each atom

 ---------------------------------------------------------------------------
     #   Z sym  total        # sym  WBO       # sym  WBO       # sym  WBO
 ---------------------------------------------------------------------------
     1   6 C    3.986 --     2 C    1.012    22 H    0.985    21 H    0.983
                            23 H    0.979
     2   6 C    3.903 --     1 C    1.012    24 H    0.969    25 H    0.969
                             3 O    0.910
     3   8 O    2.349 --     4 C    1.200     2 C    0.910     5 O    0.179
     4   6 C    3.912 --     5 O    1.686     3 O    1.200     6 C    0.965
     5   8 O    1.992 --     4 C    1.686     3 O    0.179
     6   6 C    3.977 --     7 C    0.975     4 C    0.965    26 H    0.962
                            27 H    0.938
     7   6 C    3.967 --     6 C    0.975    14 S    0.972     9 C    0.953
                             8 H    0.928
     8   1 H    0.979 --     7 C    0.928
     9   6 C    3.916 --    10 O    1.612    11 O    1.253     7 C    0.953
    10   8 O    2.133 --     9 C    1.612    15 P    0.198    11 O    0.163
    11   8 O    2.382 --     9 C    1.253    12 C    0.890    10 O    0.163
    12   6 C    3.884 --    13 C    1.014    29 H    0.972    28 H    0.961
                            11 O    0.890
    13   6 C    3.982 --    12 C    1.014    31 H    0.983    30 H    0.982
                            32 H    0.976
    14  16 S    2.271 --    15 P    0.976     7 C    0.972    16 S    0.129
    15  15 P    5.351 --    16 S    1.504    17 O    1.282    19 O    1.278
                            14 S    0.976    10 O    0.198
    16  16 S    1.825 --    15 P    1.504    14 S    0.129
    17   8 O    2.389 --    15 P    1.282    18 C    0.915
    18   6 C    3.892 --    34 H    0.979    35 H    0.975    33 H    0.972
                            17 O    0.915
    19   8 O    2.341 --    15 P    1.278    20 C    0.903
    20   6 C    3.890 --    36 H    0.979    38 H    0.974    37 H    0.973
                            19 O    0.903
    21   1 H    0.994 --     1 C    0.983
    22   1 H    0.997 --     1 C    0.985
    23   1 H    0.994 --     1 C    0.979
    24   1 H    0.997 --     2 C    0.969
    25   1 H    0.993 --     2 C    0.969
    26   1 H    0.985 --     6 C    0.962
    27   1 H    0.983 --     6 C    0.938
    28   1 H    0.990 --    12 C    0.961
    29   1 H    0.996 --    12 C    0.972
    30   1 H    0.996 --    13 C    0.982
    31   1 H    0.994 --    13 C    0.983
    32   1 H    0.992 --    13 C    0.976
    33   1 H    0.990 --    18 C    0.972
    34   1 H    0.993 --    18 C    0.979
    35   1 H    0.995 --    18 C    0.975
    36   1 H    0.994 --    20 C    0.979
    37   1 H    0.989 --    20 C    0.973
    38   1 H    0.993 --    20 C    0.974
 ---------------------------------------------------------------------------

Topologies differ in total number of bonds
Writing topology from bond orders to xtbtopo.mol

molecular dipole:
                 x           y           z       tot (Debye)
 q only:        0.828       1.601      -2.475
   full:        0.509       1.819      -2.281       7.529
molecular quadrupole (traceless):
                xx          xy          yy          xz          yz          zz
 q only:        8.297      -0.036       7.377      -0.145       7.599     -15.673
  q+dip:        9.304      -1.537       9.648      -4.812       5.428     -18.951
   full:       10.361      -1.169       8.607      -3.921       5.932     -18.968


           -------------------------------------------------
          | TOTAL ENERGY              -64.674260298966 Eh   |
          | GRADIENT NORM               0.000040591721 Eh/α |
          | HOMO-LUMO GAP               3.027651584126 eV   |
           -------------------------------------------------

------------------------------------------------------------------------
 * finished run on 2025/04/09 at 07:31:33.811     
------------------------------------------------------------------------
 total:
 * wall-time:     0 d,  0 h,  0 min,  0.172 sec
 *  cpu-time:     0 d,  0 h,  0 min,  0.116 sec
 * ratio c/w:     0.675 speedup
 SCF:
 * wall-time:     0 d,  0 h,  0 min,  0.116 sec
 *  cpu-time:     0 d,  0 h,  0 min,  0.093 sec
 * ratio c/w:     0.797 speedup

