
                                 *****************
                                 * O   R   C   A *
                                 *****************

                                            #,                                       
                                            ###                                      
                                            ####                                     
                                            #####                                    
                                            ######                                   
                                           ########,                                 
                                     ,,################,,,,,                         
                               ,,#################################,,                 
                          ,,##########################################,,             
                       ,#########################################, ''#####,          
                    ,#############################################,,   '####,        
                  ,##################################################,,,,####,       
                ,###########''''           ''''###############################       
              ,#####''   ,,,,##########,,,,          '''####'''          '####       
            ,##' ,,,,###########################,,,                        '##       
           ' ,,###''''                  '''############,,,                           
         ,,##''                                '''############,,,,        ,,,,,,###''
      ,#''                                            '''#######################'''  
     '                                                          ''''####''''         
             ,#######,   #######,   ,#######,      ##                                
            ,#'     '#,  ##    ##  ,#'     '#,    #''#        ,####,   ,####,        
            ##       ##  ##   ,#'  ##            #'  '#       #'       #'  '#        
            ##       ##  #######   ##           ,######,      #####,   #    #        
            '#,     ,#'  ##    ##  '#,     ,#' ,#      #,     #,   #   #,  ,#        
             '#######'   ##     ##  '#######'  #'      '#     '####' # '####'        



                #########################################################
                #                        -***-                          #
                #          Department of theory and spectroscopy        #
                #                                                       #
                #                      Frank Neese                      #
                #                                                       #
                #     Directorship, Architecture, Infrastructure        #
                #                    SHARK, DRIVERS                     #
                #        Core code/Algorithms in most modules           #
                #                                                       #
                #        Max Planck Institute fuer Kohlenforschung      #
                #                Kaiser Wilhelm Platz 1                 #
                #                 D-45470 Muelheim/Ruhr                 #
                #                      Germany                          #
                #                                                       #
                #                  All rights reserved                  #
                #                        -***-                          #
                #########################################################


                         Program Version 6.0.0  -   RELEASE  -


 With contributions from (in alphabetic order):
   Daniel Aravena         : Magnetic Suceptibility
   Michael Atanasov       : Ab Initio Ligand Field Theory (pilot matlab implementation)
   Alexander A. Auer      : GIAO ZORA, VPT2 properties, NMR spectrum
   Ute Becker             : All parallelization in ORCA, NUMFREQ, NUMCALC
   Giovanni Bistoni       : ED, misc. LED, open-shell LED, HFLD
   Martin Brehm           : Molecular dynamics
   Dmytro Bykov           : pre 5.0 version of the SCF Hessian
   Marcos Casanova-Páez   : Triplet and SCS-CIS(D). UHF-(DLPNO)-IP/EA/STEOM-CCSD. UHF-CVS-IP/STEOM-CCSD
   Vijay G. Chilkuri      : MRCI spin determinant printing, contributions to CSF-ICE
   Pauline Colinet        : FMM embedding
   Dipayan Datta          : RHF DLPNO-CCSD density
   Achintya Kumar Dutta   : EOM-CC, STEOM-CC
   Nicolas Foglia         : Exact transition moments, OPA infrastructure, MCD improvements
   Dmitry Ganyushin       : Spin-Orbit,Spin-Spin,Magnetic field MRCI
   Miquel Garcia          : C-PCM and meta-GGA Hessian, CCSD/C-PCM, Gaussian charge scheme
   Tiago L. C. Gouveia    : GS-ROHF, GS-ROCIS
   Yang Guo               : DLPNO-NEVPT2, F12-NEVPT2, CIM, IAO-localization
   Andreas Hansen         : Spin unrestricted coupled pair/coupled cluster methods
   Ingolf Harden          : AUTO-CI MPn and infrastructure 
   Benjamin Helmich-Paris : MC-RPA, TRAH-(SCF,CASSCF), AVAS, COSX integrals, SCF dyn. polar.
   Lee Huntington         : MR-EOM, pCC
   Robert Izsak           : Overlap fitted RIJCOSX, COSX-SCS-MP3, EOM
   Riya Kayal             : Wick's Theorem for AUTO-CI, AUTO-CI UHF-CCSDT
   Emily Kempfer          : AUTO-CI, RHF CISDT and CCSDT
   Christian Kollmar      : KDIIS, OOCD, Brueckner-CCSD(T), CCSD density, CASPT2, CASPT2-K, improved NEVPT2
   Axel Koslowski         : Symmetry handling
   Simone Kossmann        : Meta GGA functionals, TD-DFT gradient, OOMP2, (MP2 Hessian; deprecated post 5.0)
   Lucas Lang             : DCDCAS
   Marvin Lechner         : AUTO-CI (C++ implementation), FIC-MRCC
   Spencer Leger          : CASSCF response
   Dagmar Lenk            : GEPOL surface, SMD, ORCA-2-JSON
   Dimitrios Liakos       : Extrapolation schemes; Compound Job, initial MDCI parallelization
   Dimitrios Manganas     : Further ROCIS development; embedding schemes. LFT, Crystal Embedding
   Dimitrios Pantazis     : SARC Basis sets
   Anastasios Papadopoulos: AUTO-CI, single reference methods and gradients
   Taras Petrenko         : pre 6.0 DFT Hessian and TD-DFT gradient, (ASA, deprecated), ECA, 1-Electron XAS/XES, NRVS
   Peter Pinski           : DLPNO-MP2, DLPNO-MP2 Gradient
   Christoph Reimann      : Effective Core Potentials
   Marius Retegan         : Local ZFS, SOC
   Christoph Riplinger    : Optimizer, TS searches, QM/MM, DLPNO-CCSD(T), (RO)-DLPNO pert. Triples
   Michael Roemelt        : Original ROCIS implementation
   Masaaki Saitow         : Open-shell DLPNO-CCSD energy and density
   Barbara Sandhoefer     : DKH picture change effects
   Kantharuban Sivalingam : CASSCF convergence/infrastructure, NEVPT2 and variants, FIC-MRCI
   Bernardo de Souza      : ESD, SOC TD-DFT
   Georgi Stoychev        : AutoAux, RI-MP2 NMR, DLPNO-MP2 response, X2C
   Van Anh Tran           : RI-MP2 g-tensors
   Willem Van den Heuvel  : Paramagnetic NMR
   Zikuan Wang            : NOTCH, Electric field optimization 
   Frank Wennmohs         : Technical directorship and infrastructure
   Hang Xu                : AUTO-CI-Response properties 


 We gratefully acknowledge several colleagues who have allowed us to
 interface, adapt or use parts of their codes:
   Stefan Grimme, W. Hujo, H. Kruse, P. Pracht,  : VdW corrections, initial TS optimization,
                  C. Bannwarth, S. Ehlert,         DFT functionals, gCP, sTDA/sTD-DF
                  L. Wittmann, M. Mueller
   Ed Valeev, F. Pavosevic, A. Kumar             : LibInt (2-el integral package), F12 methods
   Garnet Chan, S. Sharma, J. Yang, R. Olivares  : DMRG
   Ulf Ekstrom                                   : XCFun DFT Library
   Mihaly Kallay                                 : mrcc  (arbitrary order and MRCC methods)
   Frank Weinhold                                : gennbo (NPA and NBO analysis)
   Simon Mueller                                 : openCOSMO-RS
   Christopher J. Cramer and Donald G. Truhlar   : smd solvation model
   Lars Goerigk                                  : TD-DFT with DH, B97 family of functionals
   V. Asgeirsson, H. Jonsson                     : NEB implementation
   FAccTs GmbH                                   : IRC, NEB, NEB-TS, DLPNO-Multilevel, CI-OPT
                                                   MM, QMMM, 2- and 3-layer-ONIOM, Crystal-QMMM,
                                                   LR-CPCM, SF, NACMEs, symmetry and pop. for TD-DFT,
                                                   nearIR, NL-DFT gradient (VV10), updates on ESD,
                                                   ML-optimized integration grids, MBIS, APM,
                                                   GOAT, DOCKER, SOLVATOR, interface openCOSMO-RS
   S Lehtola, MJT Oliveira, MAL Marques          : LibXC Library
   Liviu Ungur et al                             : ANISO software


 Your calculation uses the libint2 library for the computation of 2-el integrals
 For citations please refer to: http://libint.valeyev.net

 Your ORCA version has been built with support for libXC version: 6.2.2
 For citations please refer to: https://libxc.gitlab.io

 This ORCA versions uses:
   CBLAS   interface :  Fast vector & matrix operations
   LAPACKE interface :  Fast linear algebra routines
   SCALAPACK package :  Parallel linear algebra routines
   Shared memory     :  Shared parallel matrices
   BLAS/LAPACK       :  OpenBLAS 0.3.27  USE64BITINT DYNAMIC_ARCH NO_AFFINITY SapphireRapids SINGLE_THREADED
        Core in use  :  SapphireRapids
   Copyright (c) 2011-2014, The OpenBLAS Project


Your calculation utilizes the geometrical counterpoise correction gCP
Please cite in your paper:
H.Kruse, S. Grimme J.Chem.Phys., 136, (2012), 154101 
   

Your calculation utilizes the DFT-NL dispersion correction.
Cite in your paper:
Vydrov, O. A.; Van Voorhis, T. J. Chem. Phys. 2010, 133, 244103
Hujo, W.; Grimme, S. J. Chem. Theory Comput. 2011, 7, 3866 
   

Your calculation utilizes the SMD solvation module
Please cite in your paper:
A.V. Marenich, C.J. Cramer, D.G. Truhlar J. Phys. Chem. B, 113, (2009), 6378 

================================================================================

----- Orbital basis set information -----
Your calculation utilizes the basis: def2-TZVP
   F. Weigend and R. Ahlrichs, Phys. Chem. Chem. Phys. 7, 3297 (2005).

----- AuxJ basis set information -----
Your calculation utilizes the auxiliary basis: def2/J
   F. Weigend, Phys. Chem. Chem. Phys. 8, 1057 (2006).

================================================================================
                                        WARNINGS
                       Please study these warnings very carefully!
================================================================================


================================================================================
                                       INPUT FILE
================================================================================
NAME = sp_solv.inp
|  1> ! wb97x-v def2-tzvp def2/J RIJCOSX DEFGRID2 scfconv7 GCP(DFT/TZ) printgap
|  2> %output
|  3>     printlevel normal
|  4> end
|  5> %cpcm
|  6>     smd true
|  7>     smdsolvent "water"
|  8> end
|  9> * xyz 0 1
| 10> C 1.4875348478180428 0.35650749696784284 -0.4994436322693907
| 11> C 0.819213917374911 -0.24400629030736243 0.4826411040489919
| 12> C -0.6599715814030969 -0.3720408250222022 0.5870661044909746
| 13> O -1.3081786381822387 0.24776878248154846 -0.5289209172905122
| 14> H 2.5723388520627988 0.39870248849803713 -0.4849181071120456
| 15> H 0.9824411225457079 0.8210033706634031 -1.340596610052283
| 16> H 1.3606442064064117 -0.6988407283481309 1.3111725371716962
| 17> H -0.9924990716338358 0.08623561391323248 1.5323298626773423
| 18> H -0.9238392175752137 -1.4403042550395753 0.6448910070175649
| 19> H -2.2582758557607585 0.13750124772298844 -0.4012421221867428
| 20> *
| 21> 
| 22>                          ****END OF INPUT****
================================================================================

                       ****************************
                       * Single Point Calculation *
                       ****************************

---------------------------------
CARTESIAN COORDINATES (ANGSTROEM)
---------------------------------
  C      1.487535    0.356507   -0.499444
  C      0.819214   -0.244006    0.482641
  C     -0.659972   -0.372041    0.587066
  O     -1.308179    0.247769   -0.528921
  H      2.572339    0.398702   -0.484918
  H      0.982441    0.821003   -1.340597
  H      1.360644   -0.698841    1.311173
  H     -0.992499    0.086236    1.532330
  H     -0.923839   -1.440304    0.644891
  H     -2.258276    0.137501   -0.401242

----------------------------
CARTESIAN COORDINATES (A.U.)
----------------------------
  NO LB      ZA    FRAG     MASS         X           Y           Z
   0 C     6.0000    0    12.011    2.811033    0.673702   -0.943812
   1 C     6.0000    0    12.011    1.548090   -0.461105    0.912060
   2 C     6.0000    0    12.011   -1.247166   -0.703055    1.109394
   3 O     8.0000    0    15.999   -2.472099    0.468215   -0.999516
   4 H     1.0000    0     1.008    4.861016    0.753439   -0.916362
   5 H     1.0000    0     1.008    1.856545    1.551472   -2.533360
   6 H     1.0000    0     1.008    2.571245   -1.320618    2.477757
   7 H     1.0000    0     1.008   -1.875551    0.162962    2.895684
   8 H     1.0000    0     1.008   -1.745803   -2.721781    1.218667
   9 H     1.0000    0     1.008   -4.267523    0.259840   -0.758238

--------------------------------
INTERNAL COORDINATES (ANGSTROEM)
--------------------------------
 C      0   0   0     0.000000000000     0.00000000     0.00000000
 C      1   0   0     1.331074792822     0.00000000     0.00000000
 C      2   1   0     1.488384077647   126.12594199     0.00000000
 O      3   2   1     1.431699469441   110.97902114   359.94150692
 H      1   2   3     1.085721481696   120.61915889   179.93740304
 H      1   2   3     1.085547981447   122.08188469   359.96070316
 H      2   1   3     1.089259133348   120.00139370   180.07395892
 H      3   2   1     1.101869047929   108.92503212   237.93512643
 H      3   2   1     1.101887745954   108.96970138   121.99176167
 H      4   3   2     0.964958821293   107.04798732   180.38788739

---------------------------
INTERNAL COORDINATES (A.U.)
---------------------------
 C      0   0   0     0.000000000000     0.00000000     0.00000000
 C      1   0   0     2.515366822199     0.00000000     0.00000000
 C      2   1   0     2.812638288841   126.12594199     0.00000000
 O      3   2   1     2.705519903323   110.97902114   359.94150692
 H      1   2   3     2.051716258121   120.61915889   179.93740304
 H      1   2   3     2.051388390165   122.08188469   359.96070316
 H      2   1   3     2.058401450899   120.00139370   180.07395892
 H      3   2   1     2.082230736030   108.92503212   237.93512643
 H      3   2   1     2.082266070177   108.96970138   121.99176167
 H      4   3   2     1.823507902755   107.04798732   180.38788739

---------------------
BASIS SET INFORMATION
---------------------
There are 3 groups of distinct atoms

 Group   1 Type C   : 11s6p2d1f contracted to 5s3p2d1f pattern {62111/411/11/1}
 Group   2 Type O   : 11s6p2d1f contracted to 5s3p2d1f pattern {62111/411/11/1}
 Group   3 Type H   : 5s1p contracted to 3s1p pattern {311/1}

Atom   0C    basis set group =>   1
Atom   1C    basis set group =>   1
Atom   2C    basis set group =>   1
Atom   3O    basis set group =>   2
Atom   4H    basis set group =>   3
Atom   5H    basis set group =>   3
Atom   6H    basis set group =>   3
Atom   7H    basis set group =>   3
Atom   8H    basis set group =>   3
Atom   9H    basis set group =>   3
---------------------------------
AUXILIARY/J BASIS SET INFORMATION
---------------------------------
There are 3 groups of distinct atoms

 Group   1 Type C   : 12s5p4d2f1g contracted to 6s4p3d1f1g pattern {711111/2111/211/2/1}
 Group   2 Type O   : 12s5p4d2f1g contracted to 6s4p3d1f1g pattern {711111/2111/211/2/1}
 Group   3 Type H   : 5s2p1d contracted to 3s1p1d pattern {311/2/1}

Atom   0C    basis set group =>   1
Atom   1C    basis set group =>   1
Atom   2C    basis set group =>   1
Atom   3O    basis set group =>   2
Atom   4H    basis set group =>   3
Atom   5H    basis set group =>   3
Atom   6H    basis set group =>   3
Atom   7H    basis set group =>   3
Atom   8H    basis set group =>   3
Atom   9H    basis set group =>   3

Checking for AutoStart:
The File: sp_solv.gbw exists
Trying to determine its content:
     ... Fine, the file contains calculation information
     ... Fine, the calculation information was read
     ... Fine, the file contains a basis set
     ... Fine, the basis set was read
     ... Fine, the file contains a geometry
     ... Fine, the geometry was read
     ... Fine, the file contains a set of orbitals
     ... Fine, the orbitals can be read
     => possible old guess file was deleted
     => GBW file was renamed to GES file
     => GES file is set as startup file
     => Guess is set to MORead
     ... now leaving AutoStart

------------------------------------------------------------------------------
                             ORCA STARTUP CALCULATIONS
                           -- RI-GTO INTEGRALS CHOSEN --
------------------------------------------------------------------------------
------------------------------------------------------------------------------
                   ___                                                        
                  /   \      - P O W E R E D   B Y -                         
                 /     \                                                     
                 |  |  |   _    _      __       _____    __    __             
                 |  |  |  | |  | |    /  \     |  _  \  |  |  /  |          
                  \  \/   | |  | |   /    \    | | | |  |  | /  /          
                 / \  \   | |__| |  /  /\  \   | |_| |  |  |/  /          
                |  |  |   |  __  | /  /__\  \  |    /   |      \           
                |  |  |   | |  | | |   __   |  |    \   |  |\   \          
                \     /   | |  | | |  |  |  |  | |\  \  |  | \   \       
                 \___/    |_|  |_| |__|  |__|  |_| \__\ |__|  \__/        
                                                                              
                      - O R C A' S   B I G   F R I E N D -                    
                                      &                                       
                       - I N T E G R A L  F E E D E R -                       
                                                                              
 v1 FN, 2020, v2 2021, v3 2022-2024                                           
------------------------------------------------------------------------------


----------------------
SHARK INTEGRAL PACKAGE
----------------------

Number of atoms                             ...     10
Number of basis functions                   ...    160
Number of shells                            ...     68
Maximum angular momentum                    ...      3
Integral batch strategy                     ... SHARK/LIBINT Hybrid
RI-J (if used) integral strategy            ... SPLIT-RIJ (Revised 2003 algorithm where possible)
Printlevel                                  ...      1
Contraction scheme used                     ... SEGMENTED contraction
Prescreening option                         ... SCHWARTZ
   Thresh                                   ... 3.000e-11
   Tcut                                     ... 1.000e-12
   Tpresel                                  ... 1.000e-12 
Coulomb Range Separation                    ... NOT USED
Exchange Range Separation                   ... Long Range
   Mu parameter                             ... 3.000e-01
   Scaling (regular/separated)              ... 1.670e-01 8.330e-01
Multipole approximations                    ... NOT USED
Finite Nucleus Model                        ... NOT USED
CABS basis                                  ... NOT available
Auxiliary Coulomb fitting basis             ... AVAILABLE
   # of basis functions in Aux-J            ...    262
   # of shells in Aux-J                     ...     90
   Maximum angular momentum in Aux-J        ...      4
Auxiliary J/K fitting basis                 ... NOT available
Auxiliary Correlation fitting basis         ... NOT available
Auxiliary 'external' fitting basis          ... NOT available

Checking pre-screening integrals            ... done (  0.0 sec) Dimension = 68
Check shell pair data                       ... done (  0.0 sec)
Shell pair information
Shell pair cut-off parameter TPreSel        ...   1.0e-12
Total number of shell pairs                 ...      2346
Shell pairs after pre-screening             ...      2291
Total number of primitive shell pairs       ...      6892
Primitive shell pairs kept                  ...      5522
          la=0 lb=0:    704 shell pairs
          la=1 lb=0:    674 shell pairs
          la=1 lb=1:    170 shell pairs
          la=2 lb=0:    299 shell pairs
          la=2 lb=1:    144 shell pairs
          la=2 lb=2:     36 shell pairs
          la=3 lb=0:    150 shell pairs
          la=3 lb=1:     72 shell pairs
          la=3 lb=2:     32 shell pairs
          la=3 lb=3:     10 shell pairs

Calculating one electron integrals          ... done (  0.0 sec)
Calculating RI/J V-Matrix + Cholesky decomp.... done (  0.0 sec)
Calculating Nuclear repulsion               ... done (  0.0 sec) ENN=    118.324945935696 Eh

Diagonalization of the overlap matrix:
Smallest eigenvalue                        ... 1.680e-04
Time for diagonalization                   ...    0.002 sec
Threshold for overlap eigenvalues          ... 1.000e-07
Number of eigenvalues below threshold      ... 0
Time for construction of square roots      ...    0.014 sec
Total time needed                          ...    0.023 sec

-------------------
DFT GRID GENERATION
-------------------

General Integration Accuracy     IntAcc      ... 4.388
Radial Grid Type                 RadialGrid  ... OptM3 with GC (2021)
Angular Grid (max. ang.)         AngularGrid ... 4 (Lebedev-302)
Angular grid pruning method      GridPruning ... 4 (adaptive)
Weight generation scheme         WeightScheme... mBecke (2022)
Basis function cutoff            BFCut       ... 1.0000e-11
Integration weight cutoff        WCut        ... 1.0000e-14
Partially contracted basis set               ... off
Rotationally invariant grid construction     ... off
Angular grids for H and He will be reduced by one unit

Total number of grid points                  ...    43775
Total number of batches                      ...      691
Average number of points per batch           ...       63
Average number of grid points per atom       ...     4378

--------------------
COSX GRID GENERATION
--------------------

GRIDX 1
-------
General Integration Accuracy     IntAcc      ... 3.816
Radial Grid Type                 RadialGrid  ... OptM3 with GC (2021)
Angular Grid (max. ang.)         AngularGrid ... 1 (Lebedev-50)
Angular grid pruning method      GridPruning ... 4 (adaptive)
Weight generation scheme         WeightScheme... mBecke (2022)
Basis function cutoff            BFCut       ... 1.0000e-11
Integration weight cutoff        WCut        ... 1.0000e-14
Partially contracted basis set               ... on
Rotationally invariant grid construction     ... off
Angular grids for H and He will be reduced by one unit

Total number of grid points                  ...     5642
Total number of batches                      ...       51
Average number of points per batch           ...      110
Average number of grid points per atom       ...      564
UseSFitting                                  ... on

GRIDX 2
-------
General Integration Accuracy     IntAcc      ... 4.020
Radial Grid Type                 RadialGrid  ... OptM3 with GC (2021)
Angular Grid (max. ang.)         AngularGrid ... 2 (Lebedev-110)
Angular grid pruning method      GridPruning ... 4 (adaptive)
Weight generation scheme         WeightScheme... mBecke (2022)
Basis function cutoff            BFCut       ... 1.0000e-11
Integration weight cutoff        WCut        ... 1.0000e-14
Partially contracted basis set               ... on
Rotationally invariant grid construction     ... off
Angular grids for H and He will be reduced by one unit

Total number of grid points                  ...    12031
Total number of batches                      ...       99
Average number of points per batch           ...      121
Average number of grid points per atom       ...     1203
UseSFitting                                  ... on

GRIDX 3
-------
General Integration Accuracy     IntAcc      ... 4.338
Radial Grid Type                 RadialGrid  ... OptM3 with GC (2021)
Angular Grid (max. ang.)         AngularGrid ... 3 (Lebedev-194)
Angular grid pruning method      GridPruning ... 4 (adaptive)
Weight generation scheme         WeightScheme... mBecke (2022)
Basis function cutoff            BFCut       ... 1.0000e-11
Integration weight cutoff        WCut        ... 1.0000e-14
Partially contracted basis set               ... on
Rotationally invariant grid construction     ... off
Angular grids for H and He will be reduced by one unit

Total number of grid points                  ...    26446
Total number of batches                      ...      211
Average number of points per batch           ...      125
Average number of grid points per atom       ...     2645
UseSFitting                                  ... on
Initializing property integral containers    ... done (  0.0 sec)

SHARK setup successfully completed in   0.8 seconds

Maximum memory used throughout the entire STARTUP-calculation: 22.2 MB
-------------------------------------------------------------------------------
                                 ORCA GUESS
                   Start orbitals & Density for SCF / CASSCF
-------------------------------------------------------------------------------

------------
SCF SETTINGS
------------
Hamiltonian:
 Density Functional     Method          .... DFT(GTOs)
 Exchange Functional    Exchange        .... WB97X-V
 Correlation Functional Correlation     .... WB97X-V
 Gradients option       PostSCFGGA      .... off
 Hybrid DFT is turned on
   Fraction HF Exchange ScalHFX         ....  0.167000
   Scaling of DF-GGA-X  ScalDFX         ....  0.000000
   Scaling of DF-GGA-C  ScalDFC         ....  1.000000
   Scaling of DF-LDA-C  ScalLDAC        ....  1.000000
   Perturbative correction              ....  0.000000
 Long-range corrected/Screened/Range-Separated Hybrid DFT is turned on
   Amount of maximum screened exact exchange              ....  0.833000
   Range separation parameter mu (erf(mu*r12)/r12)        ....  0.300000
   NL short-range parameter             ....  6.000000
   NL long-range parameter              ....  0.010000
 RI-approximation to the Coulomb term is turned on
   Number of AuxJ basis functions       .... 262
   RIJ-COSX (HFX calculated with COS-X)).... on


General Settings:
 Integral files         IntName         .... sp_solv
 Hartree-Fock type      HFTyp           .... RHF
 Total Charge           Charge          ....    0
 Multiplicity           Mult            ....    1
 Number of Electrons    NEL             ....   32
 Basis Dimension        Dim             ....  160
 Nuclear Repulsion      ENuc            ....    118.3249459357 Eh

Convergence Acceleration:
 AO-DIIS                CNVDIIS         .... on
   Start iteration      DIISMaxIt       ....    12
   Startup error        DIISStart       ....  0.200000
   # of expansion vecs  DIISMaxEq       ....     5
   Bias factor          DIISBfac        ....   1.050
   Max. coefficient     DIISMaxC        ....  10.000
 MO-DIIS                CNVKDIIS        .... off
 Trust-Rad. Augm. Hess. CNVTRAH         .... auto
   Auto Start mean grad. ratio tolernc. ....  1.125000
   Auto Start start iteration           ....     1
   Auto Start num. interpolation iter.  ....    10
   Max. Number of Micro iterations      ....    24
   Max. Number of Macro iterations      .... Maxiter - #DIIS iter
   Number of Davidson start vectors     ....     2
   Converg. threshold    (grad. norm)   ....   1.000e-04
   Grad. Scal. Fac. for Micro threshold ....   0.100
   Minimum threshold for Micro iter.    ....   1.000e-02
   NR start threshold (gradient norm)   ....   1.000e-04
   Initial trust radius                 ....   0.400
   Minimum AH scaling param. (alpha)    ....   1.000
   Maximum AH scaling param. (alpha)    .... 1000.000
   Quad. conv. algorithm                .... NR
   White noise on init. David. guess    .... on
   Maximum white noise                  ....   0.010
   Pseudo random numbers                .... off
   Inactive MOs                         .... canonical
   Orbital update algorithm             .... Taylor
   Preconditioner                       .... Diag
   Full preconditioner red. dimension   ....   250
 SOSCF                  CNVSOSCF        .... on
   Start iteration      SOSCFMaxIt      ....   150
   Startup grad/error   SOSCFStart      ....  0.003300
   Hessian update       SOSCFHessUp     .... L-BFGS
 Level Shifting         CNVShift        .... on
   Level shift para.    LevelShift      ....    0.2500
   Turn off err/grad.   ShiftErr        ....    0.0010
 Zerner damping         CNVZerner       .... off
 Static damping         CNVDamp         .... on
   Fraction old density DampFac         ....    0.7000
   Max. Damping (<1)    DampMax         ....    0.9800
   Min. Damping (>=0)   DampMin         ....    0.0000
   Turn off err/grad.   DampErr         ....    0.1000

SCF Procedure:
 Maximum # iterations   MaxIter         ....   125
 SCF integral mode      SCFMode         .... Direct
   Integral package                     .... SHARK and LIBINT hybrid scheme
 Reset frequency        DirectResetFreq ....    20
 Integral Threshold     Thresh          ....  3.000e-11 Eh
 Primitive CutOff       TCut            ....  1.000e-12 Eh

Convergence Tolerance:
 Convergence Check Mode ConvCheckMode   .... Total+1el-Energy
 Convergence forced     ConvForced      .... 0
 Energy Change          TolE            ....  1.000e-07 Eh
 1-El. energy change                    ....  1.000e-04 Eh
 Orbital Gradient       TolG            ....  1.000e-04
 Orbital Rotation angle TolX            ....  1.000e-04
 DIIS Error             TolErr          ....  1.000e-07

---------------------
INITIAL GUESS: MOREAD
---------------------
Guess MOs are being read from file: sp_solv.ges
Input Geometry matches current geometry (good)
Atom 0: N(Shells)= 11 and 9 - projection required
Input basis set needs projection
NBasis(read)= 111
NBasis(calc)= 160
Basis set overlap was calculated
Using GuessMode=FMatrix for the initial guess
C*T matrix was formed
Effective Fockian was calculated
Effective Fockian was diagonalized
Initial density was built
                      ------------------
                      INITIAL GUESS DONE (   0.0 sec)
                      ------------------
             **** ENERGY FILE WAS UPDATED (sp_solv.en.tmp) ****
Finished Guess after   0.3 sec
Maximum memory used throughout the entire GUESS-calculation: 12.7 MB

-------------------------------------------------------------------------------------------
                                      ORCA LEAN-SCF
                              memory conserving SCF solver
-------------------------------------------------------------------------------------------

--------------------
CPCM SOLVATION MODEL
--------------------
CPCM parameters:
  Epsilon                                         ...      78.3550
  Refrac                                          ...       1.3328
  Rsolv                                           ...       1.3000
  Surface type                                    ... GAUSSIAN VDW
  Discretization scheme                           ... Constant charge density
    Threshold for H atoms                         ...       5.0000 (charges/Ang^2)
    Threshold for non-H atoms                     ...       5.0000 (charges/Ang^2)
  Epsilon function type                           ...         CPCM
Solvent:                                          ... WATER
SMD-CDS solvent descriptors:
  Soln                                            ...       1.3328
  Soln25                                          ...       1.3323
  Sola                                            ...       0.0000
  Solb                                            ...       0.0000
  Solg                                            ...       0.0000
  Solc                                            ...       0.0000
  Solh                                            ...       0.0000
Radii:
  Scheme                                          ... Element-dependent radii
  Radius for C  used is    3.4960 Bohr (=   1.8500 Ang.)
  Radius for O  used is    2.8724 Bohr (=   1.5200 Ang.)
  Radius for H  used is    2.2677 Bohr (=   1.2000 Ang.)
Calculating surface                               ...        done! (  0.0s)
Cavity surface points                             ...          800
Cavity Volume                                     ...     471.9832
Cavity Surface-area                               ...     339.0948
Calculating surface distance matrix               ...        done! (  0.0s)
Performing Cholesky decomposition & store         ...        done! (  0.0s)
Overall time for CPCM initialization              ...                 0.0s

----------------------------------------D-I-I-S--------------------------------------------
Iteration    Energy (Eh)           Delta-E    RMSDP     MaxDP     DIISErr   Damp  Time(sec)
-------------------------------------------------------------------------------------------
               ***  Starting incremental Fock matrix formation  ***
    1    -193.2615533166163289     0.00e+00  8.76e-04  1.34e-02  4.85e-02  0.700   3.2
    2    -193.2640014324636297    -2.45e-03  7.43e-04  1.13e-02  3.39e-02  0.700   1.8
                               ***Turning on AO-DIIS***
    3    -193.2658561844454823    -1.85e-03  6.19e-04  9.42e-03  2.36e-02  0.700   1.9
    4    -193.2672262660769604    -1.37e-03  1.54e-03  2.46e-02  1.64e-02  0.000   1.8
                              *** Initializing SOSCF ***
---------------------------------------S-O-S-C-F--------------------------------------
Iteration    Energy (Eh)           Delta-E    RMSDP     MaxDP     MaxGrad    Time(sec)
--------------------------------------------------------------------------------------
    5    -193.2707369517478639    -3.51e-03  7.45e-05  1.60e-03  7.88e-04     1.9
               *** Restarting incremental Fock matrix formation ***
    6    -193.2707552517705665    -1.83e-05  3.71e-05  6.81e-04  4.33e-04     3.2
    7    -193.2707583836832157    -3.13e-06  2.20e-05  2.80e-04  1.51e-04     2.7
    8    -193.2707587693164726    -3.86e-07  5.93e-06  1.20e-04  1.13e-04     2.7
    9    -193.2707589639187802    -1.95e-07  1.43e-06  3.50e-05  1.30e-05     2.5
                  *** Gradient check signals convergence ***

               *****************************************************
               *                     SUCCESS                       *
               *           SCF CONVERGED AFTER   9 CYCLES          *
               *****************************************************


------------------
NL GRID GENERATION
------------------

General Integration Accuracy     IntAcc      ... 4.004
Radial Grid Type                 RadialGrid  ... OptM3 with GC (2021)
Angular Grid (max. ang.)         AngularGrid ... 2 (Lebedev-110)
Angular grid pruning method      GridPruning ... 4 (adaptive)
Weight generation scheme         WeightScheme... mBecke (2022)
Basis function cutoff            BFCut       ... 1.0000e-10
Integration weight cutoff        WCut        ... 1.0000e-14
Partially contracted basis set               ... off
Rotationally invariant grid construction     ... off
Angular grids for H and He will be reduced by one unit

Total number of grid points                  ...    13389
Total number of batches                      ...      214
Average number of points per batch           ...       62
Average number of grid points per atom       ...     1339
Final grid set up in    0.1 sec

-------------------------------------------------------------------------------
                    post-SCF DFT-NL dispersion correction                      
-------------------------------------------------------------------------------

SCF Energy:     -193.270758964 
NL    Energy:      0.126562502 
SC+NL Energy:   -193.144196462 
NL done in  :              0.5 sec
-------------------------------------------------------------------------------
Recomputing exchange energy using gridx3       ... done (    5.185 sec)
Old exchange energy                            :     -8.498357799 Eh
New exchange energy                            :     -8.498360867 Eh
Exchange energy change after final integration :     -0.000003068 Eh
Total energy after final integration           :   -193.144199530 Eh

SMD CDS free energy correction energy :                 3.28830     Kcal/mol
Total Energy after SMD CDS correction =              -193.138959296 Eh
             **** ENERGY FILE WAS UPDATED (sp_solv.en.tmp) ****

----------------
TOTAL SCF ENERGY
----------------

Total Energy       :       -193.13895929618545 Eh           -5255.57827 eV

Components:
Nuclear Repulsion  :        118.32494593569598 Eh            3219.78547 eV
Electronic Energy  :       -311.57926620764295 Eh           -8478.50287 eV
One Electron Energy:       -495.64546893886171 Eh          -13487.19889 eV
Two Electron Energy:        184.06620273121874 Eh            5008.69601 eV
CPCM Dielectric    :         -0.01643869197181 Eh              -0.44732 eV
SMD CDS (Gcds)     :          0.00524023404891 Eh               0.14259 eV

Virial components:
Potential Energy   :       -385.49246165733001 Eh          -10489.78317 eV
Kinetic Energy     :        192.35350236114456 Eh            5234.20490 eV
Virial Ratio       :          2.00408340334540

DFT components:
N(Alpha)           :       16.000009650600 electrons
N(Beta)            :       16.000009650600 electrons
N(Total)           :       32.000019301201 electrons
E(X)               :      -17.374626124159 Eh       
E(C)               :       -1.304143950120 Eh       
NL Energy, E(C,NL) :        0.126562502058 Eh       
E(XC)              :      -18.552207572222 Eh       

CPCM Solvation Model Properties:
Surface-charge          :         -0.03850050407962
Corrected charge        :          0.00000000000000
Outlying charge corr.   :          0.00014425820517 Eh               0.00393 eV
Free-energy (cav+disp)  :          0.00524023404891 Eh               0.14259 eV

---------------
SCF CONVERGENCE
---------------

  Last Energy change         ...    1.9460e-07  Tolerance :   1.0000e-07
  Last MAX-Density change    ...    3.5022e-05  Tolerance :   1.0000e-05
  Last RMS-Density change    ...    1.4283e-06  Tolerance :   1.0000e-06
  Last DIIS Error            ...    7.8788e-04  Tolerance :   1.0000e-07
  Last Orbital Gradient      ...    1.2959e-05  Tolerance :   1.0000e-04
  Last Orbital Rotation      ...    3.5064e-05  Tolerance :   1.0000e-04


----------------
ORBITAL ENERGIES
----------------

  NO   OCC          E(Eh)            E(eV) 
   0   2.0000     -21.675849      -589.8299 
   1   2.0000     -12.092849      -329.0632 
   2   2.0000     -12.050556      -327.9123 
   3   2.0000     -12.034847      -327.4848 
   4   2.0000      -1.677011       -45.6338 
   5   2.0000      -1.309437       -35.6316 
   6   2.0000      -1.201261       -32.6880 
   7   2.0000      -1.063209       -28.9314 
   8   2.0000      -1.018280       -27.7088 
   9   2.0000      -0.947255       -25.7761 
  10   2.0000      -0.941764       -25.6267 
  11   2.0000      -0.894673       -24.3453 
  12   2.0000      -0.855956       -23.2917 
  13   2.0000      -0.807760       -21.9803 
  14   2.0000      -0.785110       -21.3639 
  15   2.0000      -0.649229       -17.6664 
  16   0.0000      -0.191432        -5.2091 
  17   0.0000      -0.138609        -3.7717 
  18   0.0000      -0.019668        -0.5352 
  19   0.0000       0.003645         0.0992 
  20   0.0000       0.022057         0.6002 
  21   0.0000       0.042432         1.1546 
  22   0.0000       0.052183         1.4200 
  23   0.0000       0.053565         1.4576 
  24   0.0000       0.137794         3.7496 
  25   0.0000       0.156096         4.2476 
  26   0.0000       0.181989         4.9522 
*Only the first 10 virtual orbitals were printed.

                    ********************************
                    * MULLIKEN POPULATION ANALYSIS *
                    ********************************

-----------------------
MULLIKEN ATOMIC CHARGES
-----------------------
   0 C :   -0.385602
   1 C :   -0.155931
   2 C :    0.001882
   3 O :   -0.545061
   4 H :    0.158847
   5 H :    0.156636
   6 H :    0.157458
   7 H :    0.123914
   8 H :    0.123581
   9 H :    0.364275
Sum of atomic charges:   -0.0000000

--------------------------------
MULLIKEN REDUCED ORBITAL CHARGES
--------------------------------
  0 C s       :     3.264147  s :     3.264147
      pz      :     0.994607  p :     3.061084
      px      :     1.052511
      py      :     1.013966
      dz2     :     0.015834  d :     0.055474
      dxz     :     0.011588
      dyz     :     0.009320
      dx2y2   :     0.012285
      dxy     :     0.006449
      f0      :     0.000811  f :     0.004897
      f+1     :     0.000760
      f-1     :     0.000657
      f+2     :     0.001139
      f-2     :     0.000561
      f+3     :     0.000698
      f-3     :     0.000271

  1 C s       :     3.193868  s :     3.193868
      pz      :     0.985269  p :     2.863678
      px      :     0.919429
      py      :     0.958980
      dz2     :     0.019995  d :     0.091248
      dxz     :     0.023281
      dyz     :     0.009906
      dx2y2   :     0.016378
      dxy     :     0.021689
      f0      :     0.001220  f :     0.007137
      f+1     :     0.000856
      f-1     :     0.000753
      f+2     :     0.001666
      f-2     :     0.000573
      f+3     :     0.000968
      f-3     :     0.001101

  2 C s       :     3.198603  s :     3.198603
      pz      :     0.822427  p :     2.665693
      px      :     0.870388
      py      :     0.972879
      dz2     :     0.031399  d :     0.124371
      dxz     :     0.027671
      dyz     :     0.016359
      dx2y2   :     0.025199
      dxy     :     0.023743
      f0      :     0.001768  f :     0.009451
      f+1     :     0.001374
      f-1     :     0.001538
      f+2     :     0.001876
      f-2     :     0.000899
      f+3     :     0.000911
      f-3     :     0.001086

  3 O s       :     3.782996  s :     3.782996
      pz      :     1.585553  p :     4.732463
      px      :     1.336607
      py      :     1.810304
      dz2     :     0.007672  d :     0.028073
      dxz     :     0.004983
      dyz     :     0.005690
      dx2y2   :     0.007182
      dxy     :     0.002547
      f0      :     0.000151  f :     0.001529
      f+1     :     0.000248
      f-1     :     0.000216
      f+2     :     0.000188
      f-2     :     0.000189
      f+3     :     0.000390
      f-3     :     0.000146

  4 H s       :     0.819368  s :     0.819368
      pz      :     0.003718  p :     0.021785
      px      :     0.013577
      py      :     0.004490

  5 H s       :     0.821320  s :     0.821320
      pz      :     0.009922  p :     0.022044
      px      :     0.005914
      py      :     0.006208

  6 H s       :     0.820977  s :     0.820977
      pz      :     0.009532  p :     0.021564
      px      :     0.006278
      py      :     0.005755

  7 H s       :     0.856042  s :     0.856042
      pz      :     0.010437  p :     0.020044
      px      :     0.004562
      py      :     0.005045

  8 H s       :     0.856366  s :     0.856366
      pz      :     0.003094  p :     0.020053
      px      :     0.004263
      py      :     0.012696

  9 H s       :     0.591188  s :     0.591188
      pz      :     0.010870  p :     0.044537
      px      :     0.019964
      py      :     0.013704


------------------------
MULLIKEN OVERLAP CHARGES
------------------------
B(  0-C ,  1-C ) :   1.1909 B(  0-C ,  2-C ) :  -0.0825 B(  0-C ,  4-H ) :   0.8435 
B(  0-C ,  5-H ) :   0.8370 B(  0-C ,  6-H ) :  -0.0596 B(  1-C ,  2-C ) :   0.5631 
B(  1-C ,  3-O ) :  -0.2024 B(  1-C ,  4-H ) :  -0.0894 B(  1-C ,  5-H ) :  -0.0804 
B(  1-C ,  6-H ) :   0.8238 B(  1-C ,  7-H ) :  -0.0991 B(  1-C ,  8-H ) :  -0.0997 
B(  2-C ,  3-O ) :   0.6124 B(  2-C ,  6-H ) :  -0.0647 B(  2-C ,  7-H ) :   0.8682 
B(  2-C ,  8-H ) :   0.8680 B(  2-C ,  9-H ) :  -0.0700 B(  3-O ,  7-H ) :  -0.0884 
B(  3-O ,  8-H ) :  -0.0884 B(  3-O ,  9-H ) :   0.6140 B(  7-H ,  8-H ) :  -0.1028 



                     *******************************
                     * LOEWDIN POPULATION ANALYSIS *
                     *******************************

----------------------
LOEWDIN ATOMIC CHARGES
----------------------
   0 C :   -0.238531
   1 C :   -0.214787
   2 C :   -0.320718
   3 O :   -0.083492
   4 H :    0.126227
   5 H :    0.122561
   6 H :    0.151440
   7 H :    0.132645
   8 H :    0.132530
   9 H :    0.192124

-------------------------------
LOEWDIN REDUCED ORBITAL CHARGES
-------------------------------
  0 C s       :     2.853646  s :     2.853646
      pz      :     1.065403  p :     3.118898
      px      :     1.047169
      py      :     1.006326
      dz2     :     0.065184  d :     0.238532
      dxz     :     0.055834
      dyz     :     0.041460
      dx2y2   :     0.050257
      dxy     :     0.025797
      f0      :     0.003914  f :     0.027456
      f+1     :     0.004481
      f-1     :     0.004724
      f+2     :     0.005066
      f-2     :     0.004649
      f+3     :     0.002764
      f-3     :     0.001857

  1 C s       :     2.797678  s :     2.797678
      pz      :     1.022221  p :     2.981017
      px      :     1.034435
      py      :     0.924361
      dz2     :     0.078167  d :     0.395019
      dxz     :     0.112582
      dyz     :     0.044652
      dx2y2   :     0.073920
      dxy     :     0.085698
      f0      :     0.006565  f :     0.041071
      f+1     :     0.005429
      f-1     :     0.005180
      f+2     :     0.007787
      f-2     :     0.004671
      f+3     :     0.004471
      f-3     :     0.006967

  2 C s       :     2.797749  s :     2.797749
      pz      :     0.905138  p :     2.926455
      px      :     1.011439
      py      :     1.009878
      dz2     :     0.140567  d :     0.528391
      dxz     :     0.110054
      dyz     :     0.083925
      dx2y2   :     0.113550
      dxy     :     0.080295
      f0      :     0.010253  f :     0.068122
      f+1     :     0.011730
      f-1     :     0.010467
      f+2     :     0.011229
      f-2     :     0.010833
      f+3     :     0.006228
      f-3     :     0.007382

  3 O s       :     3.362047  s :     3.362047
      pz      :     1.596930  p :     4.653059
      px      :     1.314752
      py      :     1.741378
      dz2     :     0.018398  d :     0.064209
      dxz     :     0.011440
      dyz     :     0.011625
      dx2y2   :     0.017196
      dxy     :     0.005549
      f0      :     0.000706  f :     0.004177
      f+1     :     0.000745
      f-1     :     0.000531
      f+2     :     0.000715
      f-2     :     0.000548
      f+3     :     0.000677
      f-3     :     0.000255

  4 H s       :     0.811404  s :     0.811404
      pz      :     0.012117  p :     0.062369
      px      :     0.036841
      py      :     0.013412

  5 H s       :     0.814377  s :     0.814377
      pz      :     0.026620  p :     0.063062
      px      :     0.018764
      py      :     0.017678

  6 H s       :     0.789767  s :     0.789767
      pz      :     0.024920  p :     0.058792
      px      :     0.017802
      py      :     0.016070

  7 H s       :     0.809693  s :     0.809693
      pz      :     0.029061  p :     0.057662
      px      :     0.012785
      py      :     0.015816

  8 H s       :     0.809811  s :     0.809811
      pz      :     0.009778  p :     0.057658
      px      :     0.012134
      py      :     0.035747

  9 H s       :     0.651678  s :     0.651678
      pz      :     0.035798  p :     0.156198
      px      :     0.078169
      py      :     0.042231


---------------------------------
LOEWDIN BOND ORDERS (THRESH 0.050000)
---------------------------------
B(  0-C ,  1-C ) :   2.1893 B(  0-C ,  2-C ) :   0.2285 B(  0-C ,  4-H ) :   0.8914 
B(  0-C ,  5-H ) :   0.8907 B(  0-C ,  6-H ) :   0.1127 B(  1-C ,  2-C ) :   1.2710 
B(  1-C ,  3-O ) :   0.1124 B(  1-C ,  4-H ) :   0.1233 B(  1-C ,  5-H ) :   0.1154 
B(  1-C ,  6-H ) :   0.8245 B(  1-C ,  7-H ) :   0.0889 B(  1-C ,  8-H ) :   0.0888 
B(  2-C ,  3-O ) :   1.5355 B(  2-C ,  6-H ) :   0.0843 B(  2-C ,  7-H ) :   0.8652 
B(  2-C ,  8-H ) :   0.8653 B(  2-C ,  9-H ) :   0.0959 B(  3-O ,  9-H ) :   1.0164 


------------------------------------------
LOEWDIN REDUCED ORBITAL POPULATIONS PER MO
-------------------------------------------
THRESHOLD FOR PRINTING IS 0.1%%
                      0         1         2         3         4         5   
                 -21.67585 -12.09285 -12.05056 -12.03485  -1.67701  -1.30944
                   2.00000   2.00000   2.00000   2.00000   2.00000   2.00000
                  --------  --------  --------  --------  --------  --------
 0 C  s               0.0       0.0       0.7      98.5       0.0      17.7
 0 C  pz              0.0       0.0       0.1       0.0       0.0       3.8
 0 C  px              0.0       0.0       0.0       0.0       0.3       2.2
 0 C  py              0.0       0.0       0.0       0.0       0.0       1.4
 0 C  dxz             0.0       0.0       0.2       0.0       0.0       0.6
 0 C  dyz             0.0       0.0       0.1       0.0       0.0       0.4
 0 C  dxy             0.0       0.0       0.1       0.0       0.0       0.2
 1 C  s               0.0       0.0      98.3       0.7       0.3      29.1
 1 C  pz              0.0       0.0       0.0       0.1       0.1       1.9
 1 C  px              0.0       0.1       0.0       0.0       1.1       0.1
 1 C  py              0.0       0.0       0.0       0.0       0.0       0.6
 1 C  dxz             0.0       0.0       0.0       0.2       0.1       0.4
 1 C  dyz             0.0       0.0       0.0       0.1       0.0       0.3
 1 C  dx2y2           0.0       0.1       0.0       0.0       0.2       0.4
 1 C  dxy             0.0       0.0       0.0       0.1       0.0       0.2
 1 C  f+1             0.0       0.0       0.0       0.0       0.0       0.1
 2 C  s               0.0      99.4       0.0       0.0       6.1      10.6
 2 C  pz              0.0       0.0       0.0       0.0       6.2       0.0
 2 C  px              0.0       0.0       0.1       0.0       2.3       6.4
 2 C  py              0.0       0.0       0.0       0.0       1.9       0.0
 2 C  dz2             0.0       0.0       0.0       0.0       0.6       0.3
 2 C  dxz             0.0       0.0       0.0       0.0       1.7       0.4
 2 C  dyz             0.0       0.0       0.0       0.0       1.3       0.0
 2 C  dx2y2           0.0       0.0       0.1       0.0       0.0       0.6
 2 C  dxy             0.0       0.0       0.0       0.0       0.5       0.2
 2 C  f+1             0.0       0.0       0.0       0.0       0.2       0.0
 2 C  f-1             0.0       0.0       0.0       0.0       0.2       0.0
 2 C  f-2             0.0       0.0       0.0       0.0       0.2       0.0
 3 O  s              99.9       0.0       0.0       0.0      59.2       1.0
 3 O  pz              0.0       0.0       0.0       0.0       0.6       1.6
 3 O  px              0.0       0.0       0.0       0.0       0.1       2.8
 3 O  py              0.0       0.0       0.0       0.0       0.2       0.5
 3 O  dxz             0.0       0.0       0.0       0.0       0.0       0.1
 4 H  s               0.0       0.0       0.0       0.0       0.0       2.5
 4 H  px              0.0       0.0       0.0       0.0       0.0       0.2
 5 H  s               0.0       0.0       0.0       0.0       0.1       2.5
 5 H  pz              0.0       0.0       0.0       0.0       0.0       0.2
 6 H  s               0.0       0.0       0.0       0.0       0.0       4.2
 6 H  pz              0.0       0.0       0.0       0.0       0.0       0.3
 7 H  s               0.0       0.0       0.0       0.0       0.6       1.9
 7 H  pz              0.0       0.0       0.0       0.0       0.1       0.1
 8 H  s               0.0       0.0       0.0       0.0       0.6       1.9
 8 H  py              0.0       0.0       0.0       0.0       0.0       0.1
 9 H  s               0.0       0.0       0.0       0.0      11.8       0.9
 9 H  px              0.0       0.0       0.0       0.0       3.1       0.2

                      6         7         8         9        10        11   
                  -1.20126  -1.06321  -1.01828  -0.94725  -0.94176  -0.89467
                   2.00000   2.00000   2.00000   2.00000   2.00000   2.00000
                  --------  --------  --------  --------  --------  --------
 0 C  s              13.8       3.5       5.4       2.1       0.0       0.4
 0 C  pz              0.8       2.0       3.3      12.8       0.0       0.5
 0 C  px              0.2       0.2       2.5       0.5       0.0      27.9
 0 C  py              0.3       0.7       1.3       4.4       0.2       0.1
 0 C  dz2             0.1       0.1       0.0       0.2       0.0       0.0
 0 C  dxz             0.0       0.2       0.2       0.2       0.0       0.1
 0 C  dyz             0.1       0.0       0.0       0.0       0.0       0.0
 0 C  dx2y2           0.0       0.1       0.0       0.3       0.0       0.0
 1 C  s               0.7       4.7       3.4       1.4       0.0       0.4
 1 C  pz              4.5       6.2       1.4       0.5       0.3      13.5
 1 C  px             15.1       0.8       0.3       9.9       0.0       9.6
 1 C  py              2.0       2.2       0.5       0.2       1.0       3.9
 1 C  dz2             0.7       0.0       0.0       0.0       0.0       0.0
 1 C  dxz             0.2       0.0       0.8       0.6       0.2       0.0
 1 C  dyz             0.3       0.0       0.0       0.0       0.0       0.0
 1 C  dx2y2           0.8       0.0       0.0       0.1       0.0       0.2
 1 C  dxy             0.0       0.0       0.3       0.2       0.5       0.0
 1 C  f-1             0.0       0.0       0.0       0.0       0.0       0.1
 2 C  s              18.2       0.6       2.2       1.4       0.0       0.1
 2 C  pz              0.6       8.2       2.3       5.6       5.1       1.4
 2 C  px              0.1       4.3      11.7       4.2       0.0       3.1
 2 C  py              0.2       2.5       1.0       1.7      15.0       0.6
 2 C  dz2             0.0       1.0       0.1       0.2       0.6       0.2
 2 C  dxz             0.0       0.1       0.0       0.4       0.2       0.4
 2 C  dyz             0.0       0.5       0.5       0.0       0.3       0.0
 2 C  dx2y2           0.1       0.9       0.0       0.5       0.1       0.3
 2 C  dxy             0.0       0.0       0.0       0.1       0.7       0.2
 2 C  f0              0.0       0.0       0.1       0.0       0.2       0.1
 2 C  f+2             0.0       0.0       0.1       0.0       0.1       0.1
 3 O  s               1.3       0.3       3.7       1.5       0.0       0.6
 3 O  pz              7.4       2.2      15.0      22.9      16.4       0.7
 3 O  px              8.4      34.0      15.1       0.5       0.1       3.1
 3 O  py              2.1       0.4       5.7       7.4      49.7       0.3
 3 O  dz2             0.2       0.2       0.0       0.0       0.1       0.1
 3 O  dxz             0.2       0.1       0.0       0.0       0.0       0.0
 3 O  dyz             0.2       0.0       0.1       0.0       0.0       0.0
 3 O  dx2y2           0.0       0.2       0.0       0.0       0.0       0.2
 4 H  s               3.1       1.7       4.3       2.2       0.0      13.6
 4 H  pz              0.0       0.0       0.0       0.1       0.0       0.0
 4 H  px              0.4       0.1       0.3       0.1       0.0       0.5
 5 H  s               2.6       2.8       3.4       9.0       0.0       1.6
 5 H  pz              0.2       0.1       0.1       0.1       0.0       0.2
 5 H  px              0.0       0.1       0.2       0.2       0.0       0.1
 6 H  s               0.1       4.3       2.7       2.4       0.0      11.9
 6 H  pz              0.1       0.1       0.1       0.2       0.0       0.2
 6 H  px              0.1       0.2       0.1       0.0       0.0       0.1
 7 H  s               4.6       1.0       3.2       1.9       3.4       0.8
 7 H  pz              0.5       0.0       0.2       0.0       0.3       0.0
 7 H  px              0.1       0.1       0.0       0.1       0.0       0.0
 7 H  py              0.1       0.1       0.1       0.1       0.0       0.0
 8 H  s               4.6       1.0       3.2       2.0       3.4       0.7
 8 H  px              0.0       0.1       0.0       0.1       0.0       0.0
 8 H  py              0.6       0.0       0.3       0.0       0.2       0.0
 9 H  s               3.3      10.4       3.7       0.2       0.0       1.2
 9 H  pz              0.2       0.2       0.2       0.5       0.4       0.0
 9 H  px              0.3       0.3       0.1       0.0       0.0       0.0
 9 H  py              0.1       0.1       0.1       0.2       1.1       0.0

                     12        13        14        15        16        17   
                  -0.85596  -0.80776  -0.78511  -0.64923  -0.19143  -0.13861
                   2.00000   2.00000   2.00000   2.00000   0.00000   0.00000
                  --------  --------  --------  --------  --------  --------
 0 C  s               0.5       0.0       0.0       0.0       0.0       0.7
 0 C  pz             12.6       0.3       5.3      11.9       9.3       0.2
 0 C  px              1.1       0.0      17.3       0.1       0.1       0.2
 0 C  py              4.4       0.9       1.3      35.3      27.6       0.1
 0 C  dz2             0.0       0.1       2.1       0.5       2.8       0.0
 0 C  dxz             0.1       0.0       1.1       0.1       0.5       0.0
 0 C  dyz             0.1       0.1       0.9       0.2       1.2       0.1
 0 C  dx2y2           0.0       0.0       1.8       0.2       1.2       0.1
 0 C  dxy             0.0       0.0       0.5       0.2       1.2       0.0
 0 C  f0              0.0       0.0       0.1       0.1       0.3       0.0
 0 C  f+1             0.0       0.0       0.0       0.1       0.2       0.0
 0 C  f+2             0.0       0.0       0.1       0.1       0.2       0.0
 0 C  f+3             0.0       0.0       0.0       0.0       0.1       0.0
 1 C  s               0.6       0.0       0.2       0.0       0.0       0.1
 1 C  pz              8.4       2.0       3.6       8.6       9.2       0.2
 1 C  px              6.4       0.0       8.4       0.1       0.1       0.2
 1 C  py              3.2       5.8       1.0      25.7      27.4       0.1
 1 C  dz2             0.1       0.0       1.9       1.0       2.6       0.3
 1 C  dxz             1.0       0.2       1.2       0.5       0.2       4.0
 1 C  dyz             0.0       0.0       1.0       0.4       1.1       0.2
 1 C  dx2y2           0.0       0.0       1.4       0.5       1.0       0.5
 1 C  dxy             0.3       0.7       0.5       1.4       0.5       1.2
 1 C  f0              0.0       0.0       0.1       0.1       0.2       0.1
 1 C  f+1             0.0       0.0       0.0       0.1       0.2       0.1
 1 C  f+2             0.0       0.0       0.1       0.0       0.3       0.1
 1 C  f+3             0.0       0.0       0.0       0.0       0.2       0.0
 1 C  f-3             0.0       0.1       0.1       0.0       0.0       0.0
 2 C  s               0.9       0.0       0.4       0.0       0.0       6.2
 2 C  pz              6.3       7.7       1.3       0.6       0.0      19.0
 2 C  px             10.0       0.0       8.3       0.0       0.0       6.9
 2 C  py              2.5      22.8       0.6       1.6       0.1       5.8
 2 C  dz2             0.4       3.1       0.1       0.5       0.3       1.8
 2 C  dxz             1.6       0.0       0.0       0.7       1.2       3.5
 2 C  dyz             0.0       1.3       0.0       0.2       0.1       3.7
 2 C  dx2y2           1.7       1.0       0.1       0.3       0.3       0.0
 2 C  dxy             0.4       0.1       0.0       1.8       3.5       1.1
 2 C  f+1             0.1       0.2       0.0       0.0       0.0       0.7
 2 C  f-1             0.1       0.0       0.0       0.0       0.0       0.5
 2 C  f-2             0.1       0.1       0.0       0.0       0.0       0.6
 2 C  f+3             0.0       0.1       0.0       0.0       0.0       0.1
 2 C  f-3             0.0       0.0       0.0       0.2       0.4       0.1
 3 O  s               0.6       0.0       0.0       0.0       0.0       8.9
 3 O  pz              6.8       6.0       0.0       0.1       0.0      13.4
 3 O  px              0.9       0.0       0.6       0.0       0.0       2.2
 3 O  py              2.5      17.9       0.0       0.2       0.1       4.2
 3 O  dz2             0.1       0.2       0.0       0.0       0.0       0.5
 3 O  dxz             0.0       0.0       0.1       0.0       0.0       1.6
 3 O  dyz             0.0       0.1       0.0       0.0       0.0       1.5
 3 O  dx2y2           0.2       0.1       0.1       0.0       0.0       0.1
 3 O  dxy             0.0       0.1       0.0       0.0       0.0       0.5
 3 O  f+1             0.0       0.0       0.0       0.0       0.0       0.1
 4 H  s               1.1       0.0      11.9       0.0       0.0       0.2
 4 H  pz              0.2       0.0       0.0       0.2       0.3       0.0
 4 H  px              0.0       0.0       0.2       0.0       0.0       0.0
 4 H  py              0.1       0.0       0.0       0.5       0.9       0.0
 5 H  s               5.7       0.0      13.0       0.0       0.0       0.2
 5 H  pz              0.0       0.0       0.2       0.2       0.3       0.0
 5 H  px              0.3       0.0       0.0       0.0       0.0       0.0
 5 H  py              0.0       0.0       0.1       0.5       0.9       0.0
 6 H  s               3.8       0.0      10.1       0.0       0.0       1.3
 6 H  pz              0.0       0.0       0.1       0.1       0.3       0.0
 6 H  px              0.3       0.0       0.0       0.0       0.0       0.2
 6 H  py              0.0       0.1       0.0       0.4       0.9       0.0
 7 H  s               6.4      13.4       0.9       2.3       1.3       0.0
 7 H  pz              0.1       0.2       0.0       0.0       0.0       0.7
 7 H  px              0.0       0.1       0.1       0.0       0.0       0.3
 7 H  py              0.2       0.0       0.0       0.0       0.0       0.3
 8 H  s               6.3      13.4       0.9       2.3       1.3       0.0
 8 H  pz              0.1       0.1       0.0       0.0       0.0       0.8
 8 H  px              0.0       0.1       0.1       0.0       0.0       0.3
 8 H  py              0.2       0.1       0.0       0.0       0.0       0.2
 9 H  s               0.7       0.0       0.3       0.0       0.0       2.9
 9 H  pz              0.1       0.2       0.0       0.0       0.0       0.2
 9 H  px              0.0       0.0       0.0       0.0       0.0       0.8
 9 H  py              0.0       0.5       0.0       0.0       0.0       0.0

                     18        19        20        21        22        23   
                  -0.01967   0.00365   0.02206   0.04243   0.05218   0.05357
                   0.00000   0.00000   0.00000   0.00000   0.00000   0.00000
                  --------  --------  --------  --------  --------  --------
 0 C  s               0.9       0.1       0.6      17.6       0.7       0.0
 0 C  pz              0.0       2.4       0.8       5.3       0.4       0.1
 0 C  px              0.4       4.1       1.2       0.6       6.3       0.0
 0 C  py              0.0       0.7       0.3       1.9       0.2       0.1
 0 C  dz2             1.0       2.2       0.6       0.4       1.0       0.3
 0 C  dxz             0.2       3.5       1.5       0.6       0.6       0.0
 0 C  dyz             0.3       0.7       0.5       3.6       0.1       0.1
 0 C  dx2y2           1.3       2.0       0.5       1.4       2.6       0.0
 0 C  dxy             0.1       1.4       0.4       0.1       0.1       0.1
 0 C  f+1             0.0       0.0       0.0       0.6       0.0       0.0
 0 C  f+2             0.0       0.1       0.0       0.0       0.0       0.0
 0 C  f-2             0.0       0.0       0.0       0.3       0.0       0.0
 0 C  f+3             0.0       0.0       0.0       0.2       0.0       0.0
 1 C  s               0.5       2.3      11.1       2.4       2.0       0.0
 1 C  pz              0.2       0.6       5.7       0.8       1.2       0.6
 1 C  px              1.9       8.6       0.9       0.2       1.9       0.0
 1 C  py              0.1       0.1       1.9       0.3       0.3       1.9
 1 C  dz2             0.9       2.9       0.0       1.0       0.4       0.6
 1 C  dxz             0.7       1.2       1.4       0.2       0.1       0.8
 1 C  dyz             0.0       0.1       0.8       3.1       3.1       0.5
 1 C  dx2y2           2.2       6.3       1.1       0.1       1.2       0.1
 1 C  dxy             0.4       0.7       0.3       0.1       0.0       2.7
 1 C  f+1             0.1       0.2       0.2       0.4       0.1       0.0
 1 C  f+2             0.0       0.0       0.0       0.0       0.2       0.1
 1 C  f-2             0.0       0.0       0.1       0.2       0.0       0.0
 1 C  f+3             0.1       0.2       0.1       0.1       0.1       0.0
 1 C  f-3             0.0       0.0       0.0       0.0       0.1       0.3
 2 C  s              10.5       2.5       0.5       0.5       6.9       0.0
 2 C  pz              0.2       0.4       1.9       0.8       4.3       8.6
 2 C  px              2.6      11.4       8.5       0.1       0.5       0.1
 2 C  py              0.1       0.2       0.8       0.3       2.9      21.9
 2 C  dz2             0.0       1.1       1.6       0.2       0.6       5.1
 2 C  dxz             0.6       0.6       0.0       0.0       0.0       0.6
 2 C  dyz             0.1       0.0       0.3       0.1       3.1       2.6
 2 C  dx2y2           0.0       3.4       8.0       0.2       1.4       1.8
 2 C  dxy             0.2       0.4       0.0       0.0       0.0       1.1
 2 C  f+1             0.0       0.2       0.1       0.1       0.1       0.0
 2 C  f-1             0.2       0.0       0.0       0.0       0.1       0.0
 2 C  f+2             0.0       0.1       0.1       0.0       0.0       0.0
 2 C  f+3             0.1       0.3       0.1       0.0       0.2       0.0
 3 O  s               2.3       2.2       0.1       0.0       0.5       0.0
 3 O  pz              0.6       0.6       0.7       1.4       0.1       0.5
 3 O  px             13.7       3.3       5.5       1.7       1.8       0.0
 3 O  py              0.1       0.2       0.3       0.6       0.0       1.5
 3 O  dz2             1.3       0.5       0.1       0.0       0.0       0.4
 3 O  dxz             1.0       0.0       0.2       0.1       0.1       0.1
 3 O  dyz             0.3       0.0       0.2       0.0       0.2       0.2
 3 O  dx2y2           1.5       1.1       0.0       0.1       0.4       0.1
 3 O  dxy             0.4       0.0       0.1       0.0       0.0       0.5
 4 H  s               2.3       4.9       2.1      11.0       6.7       0.0
 4 H  pz              0.0       0.3       0.1       0.1       0.1       0.0
 4 H  px              0.5       1.3       0.5       4.6       2.1       0.0
 4 H  py              0.0       0.2       0.0       0.0       0.0       0.0
 5 H  s               0.4       5.0       0.2      21.9       0.0       0.0
 5 H  pz              0.0       0.9       0.0       4.9       0.0       0.0
 5 H  px              0.1       0.1       0.3       2.1       0.5       0.0
 5 H  py              0.0       0.3       0.0       1.5       0.0       0.0
 6 H  s               1.0       0.9      16.8       3.0       5.4       0.0
 6 H  pz              0.2       0.3       2.9       1.0       1.1       0.0
 6 H  px              0.0       0.1       2.3       0.1       0.4       0.0
 6 H  py              0.1       0.1       0.8       0.3       0.3       0.2
 7 H  s               5.5       0.1       3.5       0.1       9.8      19.2
 7 H  pz              1.3       0.0       0.8       0.0       1.6       5.2
 7 H  px              0.3       0.6       0.1       0.0       0.2       0.8
 7 H  py              0.2       0.0       0.5       0.0       2.1       0.2
 8 H  s               5.5       0.1       3.5       0.1      13.9      15.1
 8 H  pz              0.0       0.0       0.0       0.0       0.3       0.7
 8 H  px              0.2       0.6       0.2       0.0       0.2       0.5
 8 H  py              1.6       0.0       1.3       0.0       4.6       3.8
 9 H  s              26.2      11.6       2.9       1.1       3.7       0.0
 9 H  pz              0.4       0.0       0.1       0.0       0.0       0.0
 9 H  px              6.5       3.2       1.1       0.4       1.1       0.0
 9 H  py              0.2       0.0       0.1       0.0       0.0       0.1

                     24        25        26        27        28        29   
                   0.13779   0.15610   0.18199   0.18607   0.21527   0.23840
                   0.00000   0.00000   0.00000   0.00000   0.00000   0.00000
                  --------  --------  --------  --------  --------  --------
 0 C  s               0.1       6.5       0.0       9.6       2.5       3.5
 0 C  pz              3.9       7.8      12.7       5.8      11.2       5.4
 0 C  px             15.6       7.0       0.1       4.0       0.6       4.2
 0 C  py              1.0       3.0      38.1       2.1       3.6       2.0
 0 C  dz2             0.1       2.4       0.9       0.6       0.3       0.1
 0 C  dxz             0.1       4.4       0.0       7.2       3.7       0.5
 0 C  dyz             0.1       8.5       0.4       0.8       0.4       3.8
 0 C  dx2y2           0.0       0.2       0.3       6.9       2.1       2.3
 0 C  dxy             0.0       1.8       0.0       1.7       1.6       0.4
 0 C  f0              0.1       0.0       0.1       0.0       0.0       0.0
 0 C  f+1             0.0       0.1       0.1       0.1       0.0       0.1
 0 C  f-1             0.2       0.0       0.0       0.0       0.2       0.0
 0 C  f+2             0.2       0.0       0.1       0.0       0.0       0.0
 0 C  f-2             0.0       0.2       0.0       0.0       0.0       0.1
 0 C  f+3             0.0       0.0       0.0       0.1       0.1       0.0
 1 C  s               0.1       4.4       0.0      10.0       2.0       1.0
 1 C  pz              2.5       4.6       5.5       2.4       1.6       3.6
 1 C  px              8.4       1.3       0.0       1.0      17.4       2.3
 1 C  py              0.7       1.6      16.2       0.9       0.9       1.3
 1 C  dz2             0.2       0.4       0.1       0.5       2.7       0.7
 1 C  dxz             0.2       0.7       0.2       0.1       0.0       5.0
 1 C  dyz             0.3       0.1       0.0       5.3       3.8       0.7
 1 C  dx2y2           0.0       2.3       0.1       2.0       0.4       0.9
 1 C  dxy             0.1       0.1       0.4       0.1       0.0       1.5
 1 C  f0              0.2       0.0       0.1       0.0       0.0       0.1
 1 C  f+1             0.0       0.0       0.1       0.0       0.1       0.0
 1 C  f-1             0.2       0.0       0.0       0.1       0.0       0.1
 1 C  f+2             0.2       0.0       0.1       0.0       0.0       0.1
 1 C  f-2             0.1       0.0       0.1       0.1       0.3       0.0
 2 C  s               0.3       2.0       0.0       0.1       0.5       3.0
 2 C  pz              1.1      13.7       2.6       2.9       2.1      18.7
 2 C  px              4.0       5.6       0.0       6.4       9.3       2.3
 2 C  py              0.5       5.0       7.7       1.2       0.9       5.5
 2 C  dz2             0.4       0.3       1.0       0.0       0.3       0.1
 2 C  dxz             0.1       1.2       0.1       0.0       0.8       1.8
 2 C  dyz             0.8       1.5       0.4       0.2       0.7       1.0
 2 C  dx2y2           4.1       0.2       0.4       0.6       3.3       0.7
 2 C  dxy             0.2       0.5       0.1       0.0       0.5       0.5
 2 C  f+1             0.0       0.0       0.0       0.0       0.0       0.1
 2 C  f+2             0.0       0.0       0.1       0.0       0.0       0.1
 2 C  f-3             0.0       0.0       0.0       0.0       0.0       0.2
 3 O  s               0.1       2.0       0.0       0.3       1.6       0.1
 3 O  pz              0.7       1.7       2.1       0.6       3.4       1.2
 3 O  px              0.5       0.7       0.0       2.5       0.5       0.4
 3 O  py              0.3       0.6       6.1       0.3       1.1       0.4
 3 O  dz2             0.2       0.0       0.0       0.0       0.0       0.6
 3 O  dxz             0.2       0.2       0.0       0.0       0.1       0.9
 3 O  dyz             0.2       0.0       0.0       0.0       0.0       1.3
 3 O  dx2y2           0.1       0.3       0.0       0.0       0.1       0.0
 3 O  dxy             0.1       0.0       0.1       0.0       0.1       0.3
 4 H  s              15.2       0.1       0.0       5.8       3.9       5.7
 4 H  pz              0.2       0.6       0.0       0.9       0.8       0.0
 4 H  px              3.4       0.0       0.0       0.3       0.0       0.3
 4 H  py              0.1       0.2       0.0       0.3       0.3       0.0
 5 H  s              14.2       1.0       0.0       4.8       2.8       1.0
 5 H  pz              1.9       0.4       0.0       0.2       0.0       0.0
 5 H  px              0.4       1.1       0.0       1.8       0.0       0.1
 5 H  py              0.6       0.2       0.0       0.1       0.0       0.0
 6 H  s               9.7       0.9       0.0       5.3       5.4       2.1
 6 H  pz              2.1       0.0       0.0       0.3       0.3       0.0
 6 H  px              0.0       0.4       0.0       0.5       0.5       3.1
 6 H  py              0.7       0.0       0.0       0.1       0.1       0.0
 7 H  s               0.7       0.1       1.6       0.6       0.9       3.6
 7 H  pz              0.0       0.3       0.0       0.3       0.0       0.0
 7 H  px              0.2       0.1       0.0       0.3       0.4       0.1
 7 H  py              0.3       0.1       0.1       0.0       0.2       0.1
 8 H  s               0.7       0.1       1.6       0.6       0.9       3.5
 8 H  pz              0.1       0.3       0.1       0.0       0.1       0.1
 8 H  px              0.2       0.1       0.0       0.2       0.4       0.1
 8 H  py              0.1       0.1       0.0       0.3       0.1       0.0
 9 H  s               0.2       0.5       0.0       0.2       1.2       0.6
 9 H  pz              0.1       0.0       0.0       0.0       0.3       0.1
 9 H  px              0.1       0.0       0.0       0.2       0.0       0.0

                     30        31        32        33        34        35   
                   0.24086   0.27247   0.28035   0.30260   0.30741   0.35578
                   0.00000   0.00000   0.00000   0.00000   0.00000   0.00000
                  --------  --------  --------  --------  --------  --------
 0 C  s               0.0       7.3       2.2       0.0       0.9       4.1
 0 C  pz              1.0       5.8       3.3       9.4       2.9       1.0
 0 C  px              0.0       1.0       5.8       0.1       0.8       3.9
 0 C  py              3.5       1.9       1.3      28.0       1.1       0.2
 0 C  dz2             0.3       1.1       0.2       0.4       0.1       0.1
 0 C  dxz             1.1       0.0       0.2       0.1       1.0       0.2
 0 C  dyz             0.2       4.2       0.2       0.2       1.0       0.7
 0 C  dx2y2           0.0       0.3       1.0       0.2       0.6       1.2
 0 C  dxy             3.3       0.0       0.0       0.2       0.2       0.1
 0 C  f0              0.0       0.0       0.0       0.1       0.0       0.0
 0 C  f+1             0.1       0.2       0.1       0.1       0.1       0.3
 0 C  f-1             0.0       0.1       0.0       0.0       0.2       0.1
 0 C  f-2             0.0       0.2       0.0       0.0       0.1       0.0
 0 C  f+3             0.0       0.0       0.1       0.1       0.0       0.3
 1 C  s               0.0       1.9       1.3       0.0       1.4       2.2
 1 C  pz              5.4       5.3       0.3       9.3       6.1       1.0
 1 C  px              0.0       1.4       2.3       0.1       2.3       7.8
 1 C  py             16.1       1.6       0.1      27.7       2.3       0.5
 1 C  dz2             3.1       0.4       0.1       0.2       0.4       0.2
 1 C  dxz             0.4       1.1       1.3       0.0       2.3       0.4
 1 C  dyz             1.4       2.2       2.5       0.1       0.1       0.4
 1 C  dx2y2           0.8       0.5       1.2       0.1       1.1       0.2
 1 C  dxy             1.9       0.3       0.6       0.0       0.6       0.2
 1 C  f+1             0.0       0.3       0.4       0.0       0.0       0.0
 1 C  f-1             0.0       0.1       0.1       0.0       0.2       0.0
 1 C  f-2             0.0       0.1       0.2       0.0       0.1       0.1
 1 C  f+3             0.0       0.1       0.1       0.0       0.0       0.1
 1 C  f-3             0.1       0.0       0.0       0.0       0.1       0.1
 2 C  s               0.0       1.2       0.2       0.0       0.9       6.3
 2 C  pz              6.6       0.2      11.3       1.1       3.5       3.8
 2 C  px              0.0      12.3      19.2       0.0       0.2       0.8
 2 C  py             20.7       0.2       3.2       3.1       1.2       1.2
 2 C  dz2             1.4       0.2       2.1       1.8       1.8       0.1
 2 C  dxz             0.0       1.3       0.8       0.5       1.4       0.1
 2 C  dyz             0.6       0.7       2.5       0.7       4.5       0.9
 2 C  dx2y2           0.5       0.2       0.7       0.8       0.0       0.6
 2 C  dxy             0.1       0.5       0.2       1.1       0.5       0.0
 2 C  f0              0.1       0.0       0.0       0.0       0.0       0.0
 2 C  f+1             0.0       0.1       0.0       0.1       0.1       0.3
 2 C  f-1             0.0       0.0       0.0       0.0       0.1       0.7
 2 C  f+3             0.0       0.1       0.1       0.1       0.0       0.6
 2 C  f-3             0.1       0.0       0.0       0.0       0.0       0.1
 3 O  s               0.0       0.0       0.5       0.0       0.9       0.8
 3 O  pz              6.5       3.6       0.0       0.1      19.6       0.4
 3 O  px              0.0       2.9       0.8       0.0       2.9       2.1
 3 O  py             19.2       1.0       0.0       0.3       6.8       0.1
 3 O  dz2             0.0       0.8       0.5       0.1       0.5       0.0
 3 O  dxz             0.0       0.5       0.0       0.0       0.8       0.1
 3 O  dyz             0.0       0.1       0.3       0.0       0.2       0.0
 3 O  dx2y2           0.0       1.3       3.5       0.0       0.4       0.1
 3 O  dxy             0.0       0.2       0.0       0.1       0.3       0.0
 4 H  s               0.0       0.1       3.7       0.0       0.7       7.9
 4 H  pz              0.0       0.1       0.0       0.0       0.1       0.4
[...]
 2 C  py              0.0       0.1       0.0       0.1       0.3       0.1
 2 C  dz2             0.0       0.0       0.0       1.7       1.7       0.2
 2 C  dxz             0.0       0.5       0.1       0.0       1.9       2.1
 2 C  dyz             0.0       0.0       0.0       0.7       2.1       0.4
 2 C  dx2y2           0.0       0.0       0.0       0.5       0.2       0.8
 2 C  dxy             0.1       0.2       0.2       0.2       0.7       0.6
 2 C  f0              1.3       1.3       0.7       2.4       0.4       0.9
 2 C  f+1             0.4       0.5       0.5       2.1       0.1       1.4
 2 C  f-1             0.1       0.0       0.0       0.0       4.1       0.4
 2 C  f+2             0.0       2.2       0.1       1.5       0.6       1.7
 2 C  f-2             0.2       0.0       0.2       1.3       0.1       1.9
 2 C  f+3             0.1       1.3       0.2       1.2       0.0       0.0
 2 C  f-3             1.7       1.1       0.2       0.1       0.0       0.6
 3 O  s               0.0       0.2       0.0       0.0       1.4       1.0
 3 O  pz              0.0       0.1       0.0       0.2       2.0       1.1
 3 O  px              0.0       0.4       0.0       0.0       6.4       0.2
 3 O  py              0.0       0.1       0.1       0.8       0.5       0.4
 3 O  dz2             0.4       0.1       0.0       6.3       0.4       4.6
 3 O  dxz             0.6       1.4       0.5       1.4       8.5       0.3
 3 O  dyz             0.1       1.6       0.0       3.0       0.8       4.6
 3 O  dx2y2           0.2       0.6       0.0       1.6       0.2       1.5
 3 O  dxy             1.6       0.6       1.4       5.3       2.6       0.1
 3 O  f0             16.7       2.3      14.2      24.5       3.1      13.6
 3 O  f+1            26.6       5.0       0.5      11.9       0.9       4.6
 3 O  f-1             0.3      42.5       4.3       0.0       5.0      19.4
 3 O  f+2            18.7       2.7       9.4      15.6       7.3      21.7
 3 O  f-2            11.8      15.7       0.5       8.2      22.2       2.8
 3 O  f+3            16.9       0.0       0.2       6.7      14.3       2.5
 3 O  f-3             0.5      10.5      63.2       0.7       3.7       5.2
 4 H  s               0.0       0.2       0.0       0.0       0.0       0.0
 6 H  s               0.0       0.0       0.0       0.0       0.2       0.1
 7 H  s               0.2       0.0       0.1       0.5       0.2       0.1
 7 H  pz              0.0       0.0       0.0       0.2       0.0       0.1
 8 H  s               0.2       0.0       0.1       0.5       0.2       0.1
 8 H  py              0.0       0.0       0.0       0.1       0.0       0.0
 9 H  s               0.0       0.3       0.0       0.0       1.3       0.1
 9 H  pz              0.1       0.5       0.7       0.0       0.2       1.0
 9 H  px              0.0       0.2       0.0       0.0       0.3       0.5
 9 H  py              0.3       0.2       2.0       0.0       0.1       0.3

                    150       151       152       153       154       155   
                   5.82526   5.97398   6.25220   6.26917   6.54104   6.73675
                   0.00000   0.00000   0.00000   0.00000   0.00000   0.00000
                  --------  --------  --------  --------  --------  --------
 1 C  s               0.1       0.0       0.0       0.0       0.1       0.0
 1 C  pz              0.0       0.0       0.0       0.0       0.1       0.0
 1 C  px              0.1       0.0       0.3       0.0       0.1       0.1
 1 C  f+2             0.2       0.0       0.0       0.0       0.0       0.0
 2 C  s               0.1       0.0       0.1       0.0       1.2       0.1
 2 C  pz              0.1       0.0       0.1       0.1       1.7       0.1
 2 C  px              0.2       0.0       1.1       0.0       0.4       0.3
 2 C  py              0.0       0.1       0.0       0.3       0.5       0.1
 2 C  dz2             0.1       0.1       0.2       0.9       0.3       0.3
 2 C  dxz             0.3       0.2       0.3       0.1       0.7       0.1
 2 C  dyz             0.3       0.0       0.2       0.4       0.5       0.3
 2 C  dx2y2           0.2       0.0       0.2       0.3       0.0       0.1
 2 C  dxy             0.1       0.4       0.1       0.2       0.2       0.0
 2 C  f0              0.2       0.1       0.1       0.3       0.0       0.2
 2 C  f+1             0.1       0.0       0.0       0.3       0.2       0.0
 2 C  f-1             0.0       0.0       0.1       0.0       0.1       0.4
 2 C  f+2             0.4       0.0       0.1       0.2       0.0       0.3
 2 C  f-2             0.1       0.0       0.0       0.2       0.2       0.0
 2 C  f+3             0.1       0.0       0.1       0.2       0.0       0.0
 2 C  f-3             0.2       0.0       0.0       0.0       0.0       0.0
 3 O  s               3.4       0.0       2.2       0.0       1.8       4.5
 3 O  pz              0.2       0.0       0.9       0.2       1.3       0.1
 3 O  px              1.9       0.0       2.3       0.0       1.6       2.1
 3 O  py              0.1       0.0       0.3       0.6       0.4       0.0
 3 O  dz2             3.2      13.2      13.2      35.6       5.7      16.1
 3 O  dxz             0.3      18.4      16.6       4.1      45.8       0.6
 3 O  dyz            10.0       5.2      39.6      17.0      13.9       1.2
 3 O  dx2y2          44.7       7.0       0.6      10.0       0.6      33.4
 3 O  dxy             0.8      50.5       6.6      15.8      14.2       0.0
 3 O  f0              0.3       0.0       0.0       5.6       0.0       2.9
 3 O  f+1            11.2       0.8       2.6       2.0       1.9       8.2
 3 O  f-1             0.2       0.1       2.4       0.0       1.4       0.9
 3 O  f+2             0.6       0.7       0.0       2.1       0.0       4.9
 3 O  f-2             0.6       0.4       0.2       1.4       4.2       0.0
 3 O  f+3            12.2       0.7       5.7       1.4       0.1      10.2
 3 O  f-3             0.7       1.0       0.4       0.1       0.0       3.3
 7 H  s               0.0       0.2       0.0       0.1       0.0       0.0
 8 H  s               0.0       0.1       0.0       0.1       0.0       0.0
 9 H  s               3.8       0.0       2.4       0.0       0.2       8.1
 9 H  pz              0.1       0.1       0.0       0.0       0.1       0.0
 9 H  px              1.9       0.0       0.5       0.0       0.0       0.6
 9 H  py              0.1       0.4       0.0       0.0       0.0       0.0

                    156       157       158       159   
                  20.48709  20.80371  21.10710  41.36827
                   0.00000   0.00000   0.00000   0.00000
                  --------  --------  --------  --------
 0 C  s              57.0       3.2      38.0       0.0
 0 C  pz              0.0       0.0       0.1       0.0
 1 C  s              40.0       0.1      58.6       0.0
 1 C  pz              0.1       0.0       0.1       0.0
 1 C  px              0.0       0.2       0.1       0.0
 2 C  s               1.5      94.7       1.9       0.1
 3 O  s               0.0       0.2       0.0      99.8
 3 O  pz              0.0       0.2       0.0       0.0
 4 H  s               0.2       0.0       0.1       0.0
 5 H  s               0.2       0.0       0.1       0.0
 6 H  s               0.1       0.0       0.2       0.0
 7 H  s               0.0       0.2       0.0       0.0
 8 H  s               0.0       0.2       0.0       0.0
 8 H  py              0.0       0.1       0.0       0.0


                      *****************************
                      * MAYER POPULATION ANALYSIS *
                      *****************************

  NA   - Mulliken gross atomic population
  ZA   - Total nuclear charge
  QA   - Mulliken gross atomic charge
  VA   - Mayer's total valence
  BVA  - Mayer's bonded valence
  FA   - Mayer's free valence

  ATOM       NA         ZA         QA         VA         BVA        FA
  0 C      6.3856     6.0000    -0.3856     3.9346     3.9346    -0.0000
  1 C      6.1559     6.0000    -0.1559     3.7861     3.7861    -0.0000
  2 C      5.9981     6.0000     0.0019     3.9598     3.9598    -0.0000
  3 O      8.5451     8.0000    -0.5451     1.8706     1.8706     0.0000
  4 H      0.8412     1.0000     0.1588     0.9676     0.9676     0.0000
  5 H      0.8434     1.0000     0.1566     0.9748     0.9748     0.0000
  6 H      0.8425     1.0000     0.1575     0.9641     0.9641    -0.0000
  7 H      0.8761     1.0000     0.1239     0.9559     0.9559    -0.0000
  8 H      0.8764     1.0000     0.1236     0.9560     0.9560     0.0000
  9 H      0.6357     1.0000     0.3643     0.8795     0.8795    -0.0000

  Mayer bond orders larger than 0.100000
B(  0-C ,  1-C ) :   1.9324 B(  0-C ,  4-H ) :   0.9671 B(  0-C ,  5-H ) :   0.9622 
B(  1-C ,  2-C ) :   0.9902 B(  1-C ,  6-H ) :   0.9541 B(  2-C ,  3-O ) :   1.0317 
B(  2-C ,  7-H ) :   0.9641 B(  2-C ,  8-H ) :   0.9639 B(  3-O ,  9-H ) :   0.8666 


-------
TIMINGS
-------

Total SCF time: 0 days 0 hours 0 min 27 sec 

Total time                  ....      27.812 sec
Sum of individual times     ....      26.825 sec  ( 96.5%)

SCF preparation             ....       0.210 sec  (  0.8%)
Fock matrix formation       ....      25.796 sec  ( 92.8%)
  Startup                   ....       0.053 sec  (  0.2% of F)
  Split-RI-J                ....       0.767 sec  (  3.0% of F)
  Chain of spheres X        ....      20.360 sec  ( 78.9% of F)
  XC integration            ....       3.531 sec  ( 13.7% of F)
    XC Preparation          ....       0.000 sec  (  0.0% of XC)
    Basis function eval.    ....       0.806 sec  ( 22.8% of XC)
    Density eval.           ....       0.458 sec  ( 13.0% of XC)
    XC-Functional eval.     ....       0.844 sec  ( 23.9% of XC)
    XC-Potential eval.      ....       0.757 sec  ( 21.4% of XC)
  CPCM terms                ....       1.089 sec  (  4.2% of F)
Diagonalization             ....       0.000 sec  (  0.0%)
Density matrix formation    ....       0.180 sec  (  0.6%)
Total Energy calculation    ....       0.045 sec  (  0.2%)
Population analysis         ....       0.066 sec  (  0.2%)
Orbital Transformation      ....       0.047 sec  (  0.2%)
Orbital Orthonormalization  ....       0.000 sec  (  0.0%)
DIIS solution               ....       0.290 sec  (  1.0%)
  MO trafo                  ....       0.000 sec  (  0.0 % of DIIS)
  Orb grad                  ....       0.000 sec  (  0.0 % of DIIS)
  Energy W gradient         ....       0.000 sec  (  0.0 % of DIIS)
  DIIS error                ....       0.002 sec  (  0.8 % of DIIS)
  DIIS work                 ....       0.252 sec  ( 86.8 % of DIIS)
  Form Q                    ....       0.000 sec  (  0.0 % of DIIS)
  Form QpQm                 ....       0.000 sec  (  0.0 % of DIIS)
  Exp/Cayley                ....       0.000 sec  (  0.0 % of DIIS)
  Orb update                ....       0.000 sec  (  0.0 % of DIIS)
  Wake-sleep                ....       0.011 sec  (  3.7 % of DIIS)
SOSCF solution              ....       0.130 sec  (  0.5%)
  MO trafo                  ....       0.052 sec  ( 40.1 % of SOSCF)
  Orb grad                  ....       0.002 sec  (  1.9 % of SOSCF)
  Rot update                ....       0.044 sec  ( 34.1 % of SOSCF)
  Step                      ....       0.031 sec  ( 23.9 % of SOSCF)
Grid generation             ....       0.061 sec  (  0.2%)
Finished LeanSCF after  27.9 sec

Maximum memory used throughout the entire LEANSCF-calculation: 16.9 MB
------------------   -----------------
gCP correction             0.005874675
------------------   -----------------

-------------------------   --------------------
FINAL SINGLE POINT ENERGY      -193.133084620685
-------------------------   --------------------


------------------------------------------------------------------------------
                              ORCA PROPERTY CALCULATIONS
------------------------------------------------------------------------------

GBWName                                 ... sp_solv.gbw
Number of atoms                         ...     10
Number of basis functions               ...    160
Max core memory                         ...   1024 MB

Electric properties:
Dipole moment                           ... YES
Quadrupole moment                       ...  NO
Static polarizability (Dipole/Dipole)   ...  NO
Static polarizability (Dipole/Quad.)    ...  NO
Static polarizability (Quad./Quad.)     ...  NO
Static polarizability (Velocity)        ...  NO

Atomic electric properties:
Dipole moment                           ...  NO
Quadrupole moment                       ...  NO
Static polarizability                   ...  NO

Choice of electric origin               ... Center of mass
Position of electric origin             ...    -0.013124     0.004733    -0.011096

General magnetic properties:
Magnetizability                         ...  NO

EPR properties:
g-Tensor (aka g-matrix)                 ...  NO
Zero-Field splitting spin-orbit         ...  NO
Zero-field splitting spin-spin          ...  NO
Hyperfine couplings                     ...  NO (   0 nuclei)
Quadrupole couplings                    ...  NO (   0 nuclei)
Contact density                         ...  NO (   0 nuclei)

NMR properties:
Chemical shifts                         ...  NO (   0 nuclei)
Spin-rotation constants                 ...  NO (   0 nuclei)
Spin-spin couplings                     ...  NO (   0 nuclei,    0 pairs)

Choice of magnetic origin               ... GIAO
Position of magnetic origin             ...     0.000000     0.000000     0.000000

Properties with geometric perturbations:
SCF Hessian                             ...  NO
IR spectrum                             ...  NO
VCD spectrum                            ...  NO
X-ray spectroscopy properties:
SCF XES/XAS/RIXS spectra                ...  NO


-------------
DIPOLE MOMENT
-------------

Method             : SCF
Type of density    : Electron Density
Multiplicity       :   1
Irrep              :   0
Energy             :  -193.1389592961854476 Eh
Relativity type    : 
Basis              : AO
                                X                 Y                 Z
Electronic contribution:     -1.293655987       0.178572941      -0.409324613
Nuclear contribution   :      0.714860680      -0.663161481       1.208955446
                        -----------------------------------------
Total Dipole Moment    :     -0.578795307      -0.484588539       0.799630834
                        -----------------------------------------
Magnitude (a.u.)       :      1.099654277
Magnitude (Debye)      :      2.795099043



--------------------
Rotational spectrum 
--------------------
 
Rotational constants in cm-1:             0.575283             0.197182             0.150989 
Rotational constants in MHz :         17246.539065          5911.380249          4526.534205 

Dipole components along the rotational axes: 
x,y,z [a.u.] :    -0.605266    -0.918077     0.005336 
x,y,z [Debye]:    -1.538463    -2.333565     0.013563 

 

Dipole moment calculation done in   0.0 sec 

Maximum memory used throughout the entire PROP-calculation: 9.8 MB

--------------------------------
SUGGESTED CITATIONS FOR THIS RUN
--------------------------------

Below you find a list of papers that are relevant to this ORCA run
We neither can nor want to force you to cite these papers, but we appreciate if you do
You receive ORCA, which is the product of decades of hard work by many enthusiastic individuals, for free
The only thing we kindly ask in return is that you cite our papers,
We deeply appreciate it, if you show your appreciation for ORCA by not just citing the generic ORCA reference.

Please note that relegating all ORCA citations to the supporting information does *not* help us.
SI sections are not indexed - citations you put there will not count into any citation statistics
But we need these citations in order to attract the funding resources that allow us to do what we are doing

Therefore, if you are a happy ORCA user, please consider citing a few of the papers listed below in the main body of your paper

In addition to the list printed below, the program has created the file sp_solv.bibtex that contains the list in bibtex format
You can import this file easily into all common literature databanks and citation aid programs


List of essential papers. We consider these as the minimum necessary citations

  1. Neese,F.
     Software update: the ORCA program system, version 5.0
     WIRES Comput. Molec. Sci., 2022 12(1)e1606
     doi.org/10.1002/wcms.1606

List of papers to cite with high priority. The work reported in these papers was absolutely
necessary for this run to complete.
Our perspective: the developers of density functionals and basis sets usually get cited in chemistry papers
Good! But without the algorithms to do something with them, the functionals or basis sets would not do anything.
Hence, in our opinion, the algorithm design and method developments papers are equally worthy of getting cited

  1. Neese,F.
     An improvement of the resolution of the identity approximation for the formation of the Coulomb matrix
     J. Comp. Chem., 2003 24(14)1740-1747
     doi.org/10.1002/jcc.10318
  2. Neese,F.; Wennmohs,F.; Hansen,A.; Becker,U.
     Efficient, approximate and parallel Hartree-Fock and hybrid DFT calculations. A 'chain-of-spheres' algorithm for the Hartree-Fock exchange
     Chem. Phys., 2009 356(1-3)98-109
     doi.org/10.1016/j.chemphys.2008.10.036
  3. Garcia-Rates,M.; Neese,F.
     Effect of the Solute Cavity on the Solvation Energy and its Derivatives within the Framework of the Gaussian Charge Scheme
     J. Comput. Chem., 2020 41 922-939
     doi.org/10.1002/jcc.26139
  4. Helmich-Paris,B.; de Souza,B.; Neese,F.; Izsák,R.
     An improved chain of spheres for exchange algorithm
     J. Chem. Phys., 2021 155 104109
     doi.org/doi: 10.1063/5.0058766.
  5. Neese,F.
     The SHARK Integral Generation and Digestion System
     J. Comp. Chem., 2022  1-16
     doi.org/10.1002/jcc.26942

List of suggested additional citations. These are papers that are important in the 'surrounding' of 
of this run, or papers that preceded the highly important papers. If you like your results we are grateful for a citation.

  1. Izsak,R.; Neese,F.
     An overlap fitted chain of spheres exchange method
     J. Chem. Phys., 2011 135 144105
     doi.org/10.1063/1.3646921
  2. Izsak,R.; Hansen,A.; Neese,F.
     The resolution of identity and chain of spheres approximations for the LPNO-CCSD singles Fock term
     Molec. Phys., 2012 110 2413-2417
     doi.org/10.1080/00268976.2012.687466
  3. Neese,F.
     The ORCA program system
     WIRES Comput. Molec. Sci., 2012 2(1)73-78
     doi.org/10.1002/wcms.81
  4. Izsak,R.; Neese,F.; Klopper,W.
     Robust fitting techniques in the chain of spheres approximation to the Fock exchange: The role of the complementary space
     J. Chem. Phys., 2013 139 
     doi.org/10.1063/1.4819264
  5. Neese,F.
     Software update: the ORCA program system, version 4.0
     WIRES Comput. Molec. Sci., 2018 8(1)1-6
     doi.org/10.1002/wcms.1327
  6. Neese,F.; Wennmohs,F.; Becker,U.; Riplinger,C.
     The ORCA quantum chemistry program package
     J. Chem. Phys., 2020 152 Art. No. L224108
     doi.org/10.1063/5.0004608

List of optional additional citations

  1. Neese,F.
     Approximate second-order SCF convergence for spin unrestricted wavefunctions
     Chem. Phys. Lett., 2000 325(1-3)93-98
     doi.org/10.1016/s0009-2614(00)00662-x

Timings for individual modules:

Sum of individual times          ...       29.134 sec (=   0.486 min)
Startup calculation              ...        0.822 sec (=   0.014 min)   2.8 %
SCF iterations                   ...       28.232 sec (=   0.471 min)  96.9 %
Property calculations            ...        0.080 sec (=   0.001 min)   0.3 %
                             ****ORCA TERMINATED NORMALLY****
TOTAL RUN TIME: 0 days 0 hours 0 minutes 29 seconds 740 msec
