
                                 *****************
                                 * O   R   C   A *
                                 *****************

                                            #,                                       
                                            ###                                      
                                            ####                                     
                                            #####                                    
                                            ######                                   
                                           ########,                                 
                                     ,,################,,,,,                         
                               ,,#################################,,                 
                          ,,##########################################,,             
                       ,#########################################, ''#####,          
                    ,#############################################,,   '####,        
                  ,##################################################,,,,####,       
                ,###########''''           ''''###############################       
              ,#####''   ,,,,##########,,,,          '''####'''          '####       
            ,##' ,,,,###########################,,,                        '##       
           ' ,,###''''                  '''############,,,                           
         ,,##''                                '''############,,,,        ,,,,,,###''
      ,#''                                            '''#######################'''  
     '                                                          ''''####''''         
             ,#######,   #######,   ,#######,      ##                                
            ,#'     '#,  ##    ##  ,#'     '#,    #''#        ,####,   ,####,        
            ##       ##  ##   ,#'  ##            #'  '#       #'       #'  '#        
            ##       ##  #######   ##           ,######,      #####,   #    #        
            '#,     ,#'  ##    ##  '#,     ,#' ,#      #,     #,   #   #,  ,#        
             '#######'   ##     ##  '#######'  #'      '#     '####' # '####'        



                #########################################################
                #                        -***-                          #
                #          Department of theory and spectroscopy        #
                #                                                       #
                #                      Frank Neese                      #
                #                                                       #
                #     Directorship, Architecture, Infrastructure        #
                #                    SHARK, DRIVERS                     #
                #        Core code/Algorithms in most modules           #
                #                                                       #
                #        Max Planck Institute fuer Kohlenforschung      #
                #                Kaiser Wilhelm Platz 1                 #
                #                 D-45470 Muelheim/Ruhr                 #
                #                      Germany                          #
                #                                                       #
                #                  All rights reserved                  #
                #                        -***-                          #
                #########################################################


                         Program Version 6.0.0  -   RELEASE  -


 With contributions from (in alphabetic order):
   Daniel Aravena         : Magnetic Suceptibility
   Michael Atanasov       : Ab Initio Ligand Field Theory (pilot matlab implementation)
   Alexander A. Auer      : GIAO ZORA, VPT2 properties, NMR spectrum
   Ute Becker             : All parallelization in ORCA, NUMFREQ, NUMCALC
   Giovanni Bistoni       : ED, misc. LED, open-shell LED, HFLD
   Martin Brehm           : Molecular dynamics
   Dmytro Bykov           : pre 5.0 version of the SCF Hessian
   Marcos Casanova-Páez   : Triplet and SCS-CIS(D). UHF-(DLPNO)-IP/EA/STEOM-CCSD. UHF-CVS-IP/STEOM-CCSD
   Vijay G. Chilkuri      : MRCI spin determinant printing, contributions to CSF-ICE
   Pauline Colinet        : FMM embedding
   Dipayan Datta          : RHF DLPNO-CCSD density
   Achintya Kumar Dutta   : EOM-CC, STEOM-CC
   Nicolas Foglia         : Exact transition moments, OPA infrastructure, MCD improvements
   Dmitry Ganyushin       : Spin-Orbit,Spin-Spin,Magnetic field MRCI
   Miquel Garcia          : C-PCM and meta-GGA Hessian, CCSD/C-PCM, Gaussian charge scheme
   Tiago L. C. Gouveia    : GS-ROHF, GS-ROCIS
   Yang Guo               : DLPNO-NEVPT2, F12-NEVPT2, CIM, IAO-localization
   Andreas Hansen         : Spin unrestricted coupled pair/coupled cluster methods
   Ingolf Harden          : AUTO-CI MPn and infrastructure 
   Benjamin Helmich-Paris : MC-RPA, TRAH-(SCF,CASSCF), AVAS, COSX integrals, SCF dyn. polar.
   Lee Huntington         : MR-EOM, pCC
   Robert Izsak           : Overlap fitted RIJCOSX, COSX-SCS-MP3, EOM
   Riya Kayal             : Wick's Theorem for AUTO-CI, AUTO-CI UHF-CCSDT
   Emily Kempfer          : AUTO-CI, RHF CISDT and CCSDT
   Christian Kollmar      : KDIIS, OOCD, Brueckner-CCSD(T), CCSD density, CASPT2, CASPT2-K, improved NEVPT2
   Axel Koslowski         : Symmetry handling
   Simone Kossmann        : Meta GGA functionals, TD-DFT gradient, OOMP2, (MP2 Hessian; deprecated post 5.0)
   Lucas Lang             : DCDCAS
   Marvin Lechner         : AUTO-CI (C++ implementation), FIC-MRCC
   Spencer Leger          : CASSCF response
   Dagmar Lenk            : GEPOL surface, SMD, ORCA-2-JSON
   Dimitrios Liakos       : Extrapolation schemes; Compound Job, initial MDCI parallelization
   Dimitrios Manganas     : Further ROCIS development; embedding schemes. LFT, Crystal Embedding
   Dimitrios Pantazis     : SARC Basis sets
   Anastasios Papadopoulos: AUTO-CI, single reference methods and gradients
   Taras Petrenko         : pre 6.0 DFT Hessian and TD-DFT gradient, (ASA, deprecated), ECA, 1-Electron XAS/XES, NRVS
   Peter Pinski           : DLPNO-MP2, DLPNO-MP2 Gradient
   Christoph Reimann      : Effective Core Potentials
   Marius Retegan         : Local ZFS, SOC
   Christoph Riplinger    : Optimizer, TS searches, QM/MM, DLPNO-CCSD(T), (RO)-DLPNO pert. Triples
   Michael Roemelt        : Original ROCIS implementation
   Masaaki Saitow         : Open-shell DLPNO-CCSD energy and density
   Barbara Sandhoefer     : DKH picture change effects
   Kantharuban Sivalingam : CASSCF convergence/infrastructure, NEVPT2 and variants, FIC-MRCI
   Bernardo de Souza      : ESD, SOC TD-DFT
   Georgi Stoychev        : AutoAux, RI-MP2 NMR, DLPNO-MP2 response, X2C
   Van Anh Tran           : RI-MP2 g-tensors
   Willem Van den Heuvel  : Paramagnetic NMR
   Zikuan Wang            : NOTCH, Electric field optimization 
   Frank Wennmohs         : Technical directorship and infrastructure
   Hang Xu                : AUTO-CI-Response properties 


 We gratefully acknowledge several colleagues who have allowed us to
 interface, adapt or use parts of their codes:
   Stefan Grimme, W. Hujo, H. Kruse, P. Pracht,  : VdW corrections, initial TS optimization,
                  C. Bannwarth, S. Ehlert,         DFT functionals, gCP, sTDA/sTD-DF
                  L. Wittmann, M. Mueller
   Ed Valeev, F. Pavosevic, A. Kumar             : LibInt (2-el integral package), F12 methods
   Garnet Chan, S. Sharma, J. Yang, R. Olivares  : DMRG
   Ulf Ekstrom                                   : XCFun DFT Library
   Mihaly Kallay                                 : mrcc  (arbitrary order and MRCC methods)
   Frank Weinhold                                : gennbo (NPA and NBO analysis)
   Simon Mueller                                 : openCOSMO-RS
   Christopher J. Cramer and Donald G. Truhlar   : smd solvation model
   Lars Goerigk                                  : TD-DFT with DH, B97 family of functionals
   V. Asgeirsson, H. Jonsson                     : NEB implementation
   FAccTs GmbH                                   : IRC, NEB, NEB-TS, DLPNO-Multilevel, CI-OPT
                                                   MM, QMMM, 2- and 3-layer-ONIOM, Crystal-QMMM,
                                                   LR-CPCM, SF, NACMEs, symmetry and pop. for TD-DFT,
                                                   nearIR, NL-DFT gradient (VV10), updates on ESD,
                                                   ML-optimized integration grids, MBIS, APM,
                                                   GOAT, DOCKER, SOLVATOR, interface openCOSMO-RS
   S Lehtola, MJT Oliveira, MAL Marques          : LibXC Library
   Liviu Ungur et al                             : ANISO software


 Your calculation uses the libint2 library for the computation of 2-el integrals
 For citations please refer to: http://libint.valeyev.net

 Your ORCA version has been built with support for libXC version: 6.2.2
 For citations please refer to: https://libxc.gitlab.io

 This ORCA versions uses:
   CBLAS   interface :  Fast vector & matrix operations
   LAPACKE interface :  Fast linear algebra routines
   SCALAPACK package :  Parallel linear algebra routines
   Shared memory     :  Shared parallel matrices
   BLAS/LAPACK       :  OpenBLAS 0.3.27  USE64BITINT DYNAMIC_ARCH NO_AFFINITY SapphireRapids SINGLE_THREADED
        Core in use  :  SapphireRapids
   Copyright (c) 2011-2014, The OpenBLAS Project


Your calculation utilizes the geometrical counterpoise correction gCP
Please cite in your paper:
H.Kruse, S. Grimme J.Chem.Phys., 136, (2012), 154101 
   

Your calculation utilizes the atom-pairwise dispersion correction
based on EEQ partial charges (D4)


Your calculation utilizes the SMD solvation module
Please cite in your paper:
A.V. Marenich, C.J. Cramer, D.G. Truhlar J. Phys. Chem. B, 113, (2009), 6378 

================================================================================

----- Orbital basis set information -----
Your calculation utilizes the basis: def2-mTZVPP
   Stefan Grimme, Andreas Hansen, Sebastian Ehlert, and Jan-Michael Mewes 
   J. Chem. Phys. 154, 064103 (2021). DOI: 10.1063/5.0040021

----- AuxJ basis set information -----
Your calculation utilizes the auxiliary basis: def2/J
   F. Weigend, Phys. Chem. Chem. Phys. 8, 1057 (2006).

================================================================================
                                        WARNINGS
                       Please study these warnings very carefully!
================================================================================

Using LibXC functional ID 497 : Re-regularized SCAN exchange by Furness et al
[ 1]  J. W. Furness, A. D. Kaplan, J. Ning, J. P. Perdew, and J. Sun.,  J. Phys. Chem. Lett. 11, 8208-8215 (2020)
[ 2]  J. W. Furness, A. D. Kaplan, J. Ning, J. P. Perdew, and J. Sun.,  J. Phys. Chem. Lett. 11, 9248-9248 (2020)
Using LibXC functional ID 498 : Re-regularized SCAN correlation by Furness et al
[ 1]  J. W. Furness, A. D. Kaplan, J. Ning, J. P. Perdew, and J. Sun.,  J. Phys. Chem. Lett. 11, 8208-8215 (2020)
[ 2]  J. W. Furness, A. D. Kaplan, J. Ning, J. P. Perdew, and J. Sun.,  J. Phys. Chem. Lett. 11, 9248-9248 (2020)
Using LibXC functional ID 497 : Re-regularized SCAN exchange by Furness et al
[ 1]  J. W. Furness, A. D. Kaplan, J. Ning, J. P. Perdew, and J. Sun.,  J. Phys. Chem. Lett. 11, 8208-8215 (2020)
[ 2]  J. W. Furness, A. D. Kaplan, J. Ning, J. P. Perdew, and J. Sun.,  J. Phys. Chem. Lett. 11, 9248-9248 (2020)
Using LibXC functional ID 498 : Re-regularized SCAN correlation by Furness et al
[ 1]  J. W. Furness, A. D. Kaplan, J. Ning, J. P. Perdew, and J. Sun.,  J. Phys. Chem. Lett. 11, 8208-8215 (2020)
[ 2]  J. W. Furness, A. D. Kaplan, J. Ning, J. P. Perdew, and J. Sun.,  J. Phys. Chem. Lett. 11, 9248-9248 (2020)

================================================================================
                                       INPUT FILE
================================================================================
NAME = sp_solv.inp
|  1> ! r2scan-3c def2/J RI DEFGRID2 scfconv6 printgap
|  2> %output
|  3>     printlevel normal
|  4> end
|  5> %cpcm
|  6>     smd true
|  7>     smdsolvent "water"
|  8> end
|  9> * xyz 0 1
| 10> C 3.1939864349 2.3749673967 2.2506287871
| 11> C 1.8025116172 1.7966127092 2.1063456125
| 12> O 1.6098054546 1.1914983735 0.8093473717
| 13> P 2.3334023832 -0.154995154 0.3915464419
| 14> S 2.6883119631 -1.4284153421 1.8436219343
| 15> O 3.61637368 0.3893534105 -0.3692428275
| 16> C 4.7471208363 -0.4466162086 -0.6696550807
| 17> C 4.4186058553 -1.4991455242 -1.7087530045
| 18> S 1.0308240147 -0.79503739 -1.1494790759
| 19> C -0.1237968699 -1.6710564099 -0.058517013
| 20> S -1.1538280565 -0.5510918272 0.9120268489
| 21> P -2.4147948814 0.0757931454 -0.6987182087
| 22> S -2.7559054497 -1.3023976304 -2.0459279112
| 23> O -1.7836285942 1.3428030451 -1.3801569032
| 24> C -1.1147915369 2.4730630706 -0.7681896523
| 25> C -1.8465116681 3.0338887954 0.4316727515
| 26> O -3.6754937897 0.6750192824 0.0573559587
| 27> C -4.5660782533 -0.1173753845 0.8673952015
| 28> C -5.6885739335 -0.7113099264 0.0389303205
| 29> H 3.2673023538 2.905730809 3.1946050181
| 30> H 3.9312440651 1.5731085285 2.2377836807
| 31> H 3.4043007371 3.0581162978 1.4319730256
| 32> H 1.0337459993 2.5687899525 2.152949716
| 33> H 1.6135118242 1.0380215624 2.8723605646
| 34> H 5.5025234622 0.2531528298 -1.0294566423
| 35> H 5.0855249253 -0.9175182632 0.2589959474
| 36> H 3.7057674569 -2.2158224162 -1.3022133829
| 37> H 3.9825696004 -1.0371098545 -2.59116048
| 38> H 5.3255790465 -2.0257858438 -1.9879059796
| 39> H 0.4370707038 -2.2834034499 0.6479157341
| 40> H -0.7620544532 -2.2790499319 -0.7013039268
| 41> H -0.1037284988 2.1551680343 -0.5000674426
| 42> H -1.0642338893 3.197641108 -1.5827845643
| 43> H -1.8490430537 2.313085621 1.2474244322
| 44> H -1.3420165868 3.9384679624 0.7583745808
| 45> H -2.8736968272 3.2721560944 0.16817118
| 46> H -3.9924035051 -0.8997851766 1.3717259155
| 47> H -4.9523633924 0.5856478841 1.6080264271
| 48> H -5.2900181045 -1.4036813832 -0.6992795609
| 49> H -6.3719492814 -1.2439888684 0.6923946585
| 50> H -6.2272459313 0.0767028135 -0.4800579435
| 51> *
| 52> 
| 53>                          ****END OF INPUT****
================================================================================

                       ****************************
                       * Single Point Calculation *
                       ****************************

---------------------------------
CARTESIAN COORDINATES (ANGSTROEM)
---------------------------------
  C      3.193986    2.374967    2.250629
  C      1.802512    1.796613    2.106346
  O      1.609805    1.191498    0.809347
  P      2.333402   -0.154995    0.391546
  S      2.688312   -1.428415    1.843622
  O      3.616374    0.389353   -0.369243
  C      4.747121   -0.446616   -0.669655
  C      4.418606   -1.499146   -1.708753
  S      1.030824   -0.795037   -1.149479
  C     -0.123797   -1.671056   -0.058517
  S     -1.153828   -0.551092    0.912027
  P     -2.414795    0.075793   -0.698718
  S     -2.755905   -1.302398   -2.045928
  O     -1.783629    1.342803   -1.380157
  C     -1.114792    2.473063   -0.768190
  C     -1.846512    3.033889    0.431673
  O     -3.675494    0.675019    0.057356
  C     -4.566078   -0.117375    0.867395
  C     -5.688574   -0.711310    0.038930
  H      3.267302    2.905731    3.194605
  H      3.931244    1.573109    2.237784
  H      3.404301    3.058116    1.431973
  H      1.033746    2.568790    2.152950
  H      1.613512    1.038022    2.872361
  H      5.502523    0.253153   -1.029457
  H      5.085525   -0.917518    0.258996
  H      3.705767   -2.215822   -1.302213
  H      3.982570   -1.037110   -2.591160
  H      5.325579   -2.025786   -1.987906
  H      0.437071   -2.283403    0.647916
  H     -0.762054   -2.279050   -0.701304
  H     -0.103728    2.155168   -0.500067
  H     -1.064234    3.197641   -1.582785
  H     -1.849043    2.313086    1.247424
  H     -1.342017    3.938468    0.758375
  H     -2.873697    3.272156    0.168171
  H     -3.992404   -0.899785    1.371726
  H     -4.952363    0.585648    1.608026
  H     -5.290018   -1.403681   -0.699280
  H     -6.371949   -1.243989    0.692395
  H     -6.227246    0.076703   -0.480058

----------------------------
CARTESIAN COORDINATES (A.U.)
----------------------------
  NO LB      ZA    FRAG     MASS         X           Y           Z
   0 C     6.0000    0    12.011    6.035760    4.488038    4.253072
   1 C     6.0000    0    12.011    3.406253    3.395106    3.980416
   2 O     8.0000    0    15.999    3.042091    2.251606    1.529445
   3 P    15.0000    0    30.974    4.409491   -0.292898    0.739916
   4 S    16.0000    0    32.060    5.080173   -2.699314    3.483941
   5 O     8.0000    0    15.999    6.833956    0.735771   -0.697768
   6 C     6.0000    0    12.011    8.970758   -0.843982   -1.265465
   7 C     6.0000    0    12.011    8.349955   -2.832974   -3.229075
   8 S    16.0000    0    32.060    1.947975   -1.502403   -2.172201
   9 C     6.0000    0    12.011   -0.233942   -3.157839   -0.110581
  10 S    16.0000    0    32.060   -2.180419   -1.041413    1.723481
  11 P    15.0000    0    30.974   -4.563301    0.143228   -1.320386
  12 S    16.0000    0    32.060   -5.207907   -2.461175   -3.866243
  13 O     8.0000    0    15.999   -3.370570    2.537530   -2.608119
  14 C     6.0000    0    12.011   -2.106651    4.673412   -1.451668
  15 C     6.0000    0    12.011   -3.489401    5.733219    0.815743
  16 O     8.0000    0    15.999   -6.945677    1.275602    0.108387
  17 C     6.0000    0    12.011   -8.628637   -0.221807    1.639139
  18 C     6.0000    0    12.011  -10.749847   -1.344181    0.073568
  19 H     1.0000    0     1.008    6.174307    5.491035    6.036929
  20 H     1.0000    0     1.008    7.428975    2.972744    4.228798
  21 H     1.0000    0     1.008    6.433196    5.779002    2.706037
  22 H     1.0000    0     1.008    1.953497    4.854310    4.068485
  23 H     1.0000    0     1.008    3.049095    1.961576    5.427975
  24 H     1.0000    0     1.008   10.398262    0.478390   -1.945391
  25 H     1.0000    0     1.008    9.610249   -1.733858    0.489431
  26 H     1.0000    0     1.008    7.002886   -4.187298   -2.460827
  27 H     1.0000    0     1.008    7.525966   -1.959854   -4.896584
  28 H     1.0000    0     1.008   10.063886   -3.828180   -3.756598
  29 H     1.0000    0     1.008    0.825944   -4.315007    1.224383
  30 H     1.0000    0     1.008   -1.440074   -4.306780   -1.325272
  31 H     1.0000    0     1.008   -0.196018    4.072677   -0.944991
  32 H     1.0000    0     1.008   -2.011111    6.042666   -2.991029
  33 H     1.0000    0     1.008   -3.494185    4.371098    2.357291
  34 H     1.0000    0     1.008   -2.536044    7.442626    1.433120
  35 H     1.0000    0     1.008   -5.430500    6.183479    0.317797
  36 H     1.0000    0     1.008   -7.544549   -1.700348    2.592186
  37 H     1.0000    0     1.008   -9.358611    1.106714    3.038730
  38 H     1.0000    0     1.008   -9.996685   -2.652573   -1.321447
  39 H     1.0000    0     1.008  -12.041239   -2.350798    1.308436
  40 H     1.0000    0     1.008  -11.767789    0.144947   -0.907178

--------------------------------
INTERNAL COORDINATES (ANGSTROEM)
--------------------------------
 C      0   0   0     0.000000000000     0.00000000     0.00000000
 C      1   0   0     1.513774734668     0.00000000     0.00000000
 O      2   1   0     1.444127231587   111.61411105     0.00000000
 P      3   2   1     1.584675030289   122.13361189    70.26085722
 S      4   3   2     1.963691172510   116.01344498    31.36715442
 O      4   3   2     1.587806984655   101.76990761   265.13146138
 C      6   4   3     1.437943621082   122.42438473   165.15312030
 C      7   6   4     1.515079056744   112.12643934    68.49001451
 S      4   3   2     2.116866579749    99.66374545   157.87503427
 C      9   4   3     1.814044358076    95.73113282   273.25126615
 S     10   9   4     1.804782618418   112.76778646    73.10954840
 P     11  10   9     2.139514370822    96.50757498    73.31769745
 S     12  11  10     1.957227686504   114.49456430    33.41999786
 O     12  11  10     1.571000847357   109.03102857   269.94111858
 C     14  12  11     1.448908089092   129.15233773   320.70837713
 C     15  14  12     1.513145608345   113.62923715   313.87301046
 O     12  11  10     1.587476565894   102.71401809   161.41638860
 C     17  12  11     1.441247227166   123.42744192   294.78419817
 C     18  17  12     1.516281257280   111.45183106   271.59666954
 H      1   2   3     1.085438228778   109.37817902   174.34901365
 H      1   2   3     1.089353686622   109.86176344   293.87219660
 H      1   2   3     1.086794268765   110.25789382    53.82076524
 H      2   1   3     1.090610018659   111.92326053   243.96710044
 H      2   1   3     1.094513753499   110.90517318   120.94156456
 H      7   6   4     1.090764409967   103.91825162   189.27549682
 H      7   6   4     1.094832774660   108.41543412   306.24473032
 H      8   7   6     1.089513108545   110.05522849   292.94197327
 H      8   7   6     1.087312065821   110.38594351    52.87842507
 H      8   7   6     1.085300317558   109.40885087   173.35061024
 H     10   9   4     1.090224086507   109.48017143   314.01044651
 H     10   9   4     1.090964656617   106.68791217   192.98152924
 H     15  14  12     1.093249852710   107.67799392    77.40856543
 H     15  14  12     1.091390983410   102.94609509   193.01367110
 H     16  15  14     1.088583680156   110.48293762    66.56338733
 H     16  15  14     1.086053793186   108.82068300   186.31810875
 H     16  15  14     1.086882576469   110.24423455   306.09076382
 H     18  17  12     1.093442851081   109.17425375    34.70940559
 H     18  17  12     1.091784107421   104.23340372   151.61192251
 H     19  18  17     1.087740231865   110.41928154    63.77184020
 H     19  18  17     1.085248525641   109.23415089   183.73074175
 H     19  18  17     1.086499156755   110.11608889   303.83718774

---------------------------
INTERNAL COORDINATES (A.U.)
---------------------------
 C      0   0   0     0.000000000000     0.00000000     0.00000000
 C      1   0   0     2.860619676972     0.00000000     0.00000000
 O      2   1   0     2.729004970238   111.61411105     0.00000000
 P      3   2   1     2.994601818509   122.13361189    70.26085722
 S      4   3   2     3.710838527643   116.01344498    31.36715442
 O      4   3   2     3.000520354526   101.76990761   265.13146138
 C      6   4   3     2.717319639865   122.42438473   165.15312030
 C      7   6   4     2.863084488486   112.12643934    68.49001451
 S      4   3   2     4.000298097776    99.66374545   157.87503427
 C      9   4   3     3.428047031549    95.73113282   273.25126615
 S     10   9   4     3.410544880071   112.76778646    73.10954840
 P     11  10   9     4.043096220442    96.50757498    73.31769745
 S     12  11  10     3.698624309220   114.49456430    33.41999786
 O     12  11  10     2.968761357664   109.03102857   269.94111858
 C     14  12  11     2.738039481606   129.15233773   320.70837713
 C     15  14  12     2.859430800518   113.62923715   313.87301046
 O     12  11  10     2.999895953557   102.71401809   161.41638860
 C     17  12  11     2.723562550617   123.42744192   294.78419817
 C     18  17  12     2.865356318258   111.45183106   271.59666954
 H      1   2   3     2.051180987680   109.37817902   174.34901365
 H      1   2   3     2.058580130694   109.86176344   293.87219660
 H      1   2   3     2.053743531882   110.25789382    53.82076524
 H      2   1   3     2.060954254176   111.92326053   243.96710044
 H      2   1   3     2.068331243923   110.90517318   120.94156456
 H      7   6   4     2.061246011465   103.91825162   189.27549682
 H      7   6   4     2.068934106548   108.41543412   306.24473032
 H      8   7   6     2.058881394467   110.05522849   292.94197327
 H      8   7   6     2.054722026510   110.38594351    52.87842507
 H      8   7   6     2.050920373242   109.40885087   173.35061024
 H     10   9   4     2.060224948103   109.48017143   314.01044651
 H     10   9   4     2.061624422793   106.68791217   192.98152924
 H     15  14  12     2.065942817572   107.67799392    77.40856543
 H     15  14  12     2.062430063677   102.94609509   193.01367110
 H     16  15  14     2.057125029352   110.48293762    66.56338733
 H     16  15  14     2.052344235828   108.82068300   186.31810875
 H     16  15  14     2.053910409256   110.24423455   306.09076382
 H     18  17  12     2.066307531637   109.17425375    34.70940559
 H     18  17  12     2.063172960393   104.23340372   151.61192251
 H     19  18  17     2.055531143073   110.41928154    63.77184020
 H     19  18  17     2.050822500703   109.23415089   183.73074175
 H     19  18  17     2.053185851002   110.11608889   303.83718774

---------------------
BASIS SET INFORMATION
---------------------
There are 5 groups of distinct atoms

 Group   1 Type C   : 11s6p1d contracted to 5s3p1d pattern {62111/411/1}
 Group   2 Type O   : 11s6p2d contracted to 5s3p2d pattern {62111/411/11}
 Group   3 Type P   : 14s9p2d contracted to 5s4p2d pattern {73211/6111/11}
 Group   4 Type S   : 14s9p2d contracted to 5s4p2d pattern {73211/6111/11}
 Group   5 Type H   : 4s1p contracted to 2s1p pattern {31/1}

Atom   0C    basis set group =>   1
Atom   1C    basis set group =>   1
Atom   2O    basis set group =>   2
Atom   3P    basis set group =>   3
Atom   4S    basis set group =>   4
Atom   5O    basis set group =>   2
Atom   6C    basis set group =>   1
Atom   7C    basis set group =>   1
Atom   8S    basis set group =>   4
Atom   9C    basis set group =>   1
Atom  10S    basis set group =>   4
Atom  11P    basis set group =>   3
Atom  12S    basis set group =>   4
Atom  13O    basis set group =>   2
Atom  14C    basis set group =>   1
Atom  15C    basis set group =>   1
Atom  16O    basis set group =>   2
Atom  17C    basis set group =>   1
Atom  18C    basis set group =>   1
Atom  19H    basis set group =>   5
Atom  20H    basis set group =>   5
Atom  21H    basis set group =>   5
Atom  22H    basis set group =>   5
Atom  23H    basis set group =>   5
Atom  24H    basis set group =>   5
Atom  25H    basis set group =>   5
Atom  26H    basis set group =>   5
Atom  27H    basis set group =>   5
Atom  28H    basis set group =>   5
Atom  29H    basis set group =>   5
Atom  30H    basis set group =>   5
Atom  31H    basis set group =>   5
Atom  32H    basis set group =>   5
Atom  33H    basis set group =>   5
Atom  34H    basis set group =>   5
Atom  35H    basis set group =>   5
Atom  36H    basis set group =>   5
Atom  37H    basis set group =>   5
Atom  38H    basis set group =>   5
Atom  39H    basis set group =>   5
Atom  40H    basis set group =>   5
---------------------------------
AUXILIARY/J BASIS SET INFORMATION
---------------------------------
There are 5 groups of distinct atoms

 Group   1 Type C   : 12s5p4d2f1g contracted to 6s4p3d1f1g pattern {711111/2111/211/2/1}
 Group   2 Type O   : 12s5p4d2f1g contracted to 6s4p3d1f1g pattern {711111/2111/211/2/1}
 Group   3 Type P   : 14s5p5d2f1g contracted to 8s4p3d1f1g pattern {71111111/2111/311/2/1}
 Group   4 Type S   : 14s5p5d2f1g contracted to 8s4p3d1f1g pattern {71111111/2111/311/2/1}
 Group   5 Type H   : 5s2p1d contracted to 3s1p1d pattern {311/2/1}

Atom   0C    basis set group =>   1
Atom   1C    basis set group =>   1
Atom   2O    basis set group =>   2
Atom   3P    basis set group =>   3
Atom   4S    basis set group =>   4
Atom   5O    basis set group =>   2
Atom   6C    basis set group =>   1
Atom   7C    basis set group =>   1
Atom   8S    basis set group =>   4
Atom   9C    basis set group =>   1
Atom  10S    basis set group =>   4
Atom  11P    basis set group =>   3
Atom  12S    basis set group =>   4
Atom  13O    basis set group =>   2
Atom  14C    basis set group =>   1
Atom  15C    basis set group =>   1
Atom  16O    basis set group =>   2
Atom  17C    basis set group =>   1
Atom  18C    basis set group =>   1
Atom  19H    basis set group =>   5
Atom  20H    basis set group =>   5
Atom  21H    basis set group =>   5
Atom  22H    basis set group =>   5
Atom  23H    basis set group =>   5
Atom  24H    basis set group =>   5
Atom  25H    basis set group =>   5
Atom  26H    basis set group =>   5
Atom  27H    basis set group =>   5
Atom  28H    basis set group =>   5
Atom  29H    basis set group =>   5
Atom  30H    basis set group =>   5
Atom  31H    basis set group =>   5
Atom  32H    basis set group =>   5
Atom  33H    basis set group =>   5
Atom  34H    basis set group =>   5
Atom  35H    basis set group =>   5
Atom  36H    basis set group =>   5
Atom  37H    basis set group =>   5
Atom  38H    basis set group =>   5
Atom  39H    basis set group =>   5
Atom  40H    basis set group =>   5

Checking for AutoStart:
The File: sp_solv.gbw exists
Trying to determine its content:
     ... Fine, the file contains calculation information
     ... Fine, the calculation information was read
     ... Fine, the file contains a basis set
     ... Fine, the basis set was read
     ... Fine, the file contains a geometry
     ... Fine, the geometry was read
     ... Fine, the file contains a set of orbitals
     ... Fine, the orbitals can be read
     => possible old guess file was deleted
     => GBW file was renamed to GES file
     => GES file is set as startup file
     => Guess is set to MORead
     ... now leaving AutoStart

------------------------------------------------------------------------------
                             ORCA STARTUP CALCULATIONS
                           -- RI-GTO INTEGRALS CHOSEN --
------------------------------------------------------------------------------
------------------------------------------------------------------------------
                   ___                                                        
                  /   \      - P O W E R E D   B Y -                         
                 /     \                                                     
                 |  |  |   _    _      __       _____    __    __             
                 |  |  |  | |  | |    /  \     |  _  \  |  |  /  |          
                  \  \/   | |  | |   /    \    | | | |  |  | /  /          
                 / \  \   | |__| |  /  /\  \   | |_| |  |  |/  /          
                |  |  |   |  __  | /  /__\  \  |    /   |      \           
                |  |  |   | |  | | |   __   |  |    \   |  |\   \          
                \     /   | |  | | |  |  |  |  | |\  \  |  | \   \       
                 \___/    |_|  |_| |__|  |__|  |_| \__\ |__|  \__/        
                                                                              
                      - O R C A' S   B I G   F R I E N D -                    
                                      &                                       
                       - I N T E G R A L  F E E D E R -                       
                                                                              
 v1 FN, 2020, v2 2021, v3 2022-2024                                           
------------------------------------------------------------------------------


----------------------
SHARK INTEGRAL PACKAGE
----------------------

Number of atoms                             ...     41
Number of basis functions                   ...    539
Number of shells                            ...    253
Maximum angular momentum                    ...      2
Integral batch strategy                     ... SHARK/LIBINT Hybrid
RI-J (if used) integral strategy            ... SPLIT-RIJ (Revised 2003 algorithm where possible)
Printlevel                                  ...      1
Contraction scheme used                     ... SEGMENTED contraction
Prescreening option                         ... SCHWARTZ
   Thresh                                   ... 1.000e-10
   Tcut                                     ... 1.000e-11
   Tpresel                                  ... 1.000e-11 
Coulomb Range Separation                    ... NOT USED
Exchange Range Separation                   ... NOT USED
Multipole approximations                    ... NOT USED
Finite Nucleus Model                        ... NOT USED
CABS basis                                  ... NOT available
Auxiliary Coulomb fitting basis             ... AVAILABLE
   # of basis functions in Aux-J            ...   1185
   # of shells in Aux-J                     ...    407
   Maximum angular momentum in Aux-J        ...      4
Auxiliary J/K fitting basis                 ... NOT available
Auxiliary Correlation fitting basis         ... NOT available
Auxiliary 'external' fitting basis          ... NOT available

Checking pre-screening integrals            ... done (  0.0 sec) Dimension = 253
Check shell pair data                       ... done (  0.0 sec)
Shell pair information
Shell pair cut-off parameter TPreSel        ...   1.0e-11
Total number of shell pairs                 ...     32131
Shell pairs after pre-screening             ...     21096
Total number of primitive shell pairs       ...    124843
Primitive shell pairs kept                  ...     49433
          la=0 lb=0:   5945 shell pairs
          la=1 lb=0:   7659 shell pairs
          la=1 lb=1:   2523 shell pairs
          la=2 lb=0:   2813 shell pairs
          la=2 lb=1:   1811 shell pairs
          la=2 lb=2:    345 shell pairs

Calculating one electron integrals          ... done (  0.1 sec)
Calculating RI/J V-Matrix + Cholesky decomp.... done (  0.1 sec)
Calculating Nuclear repulsion               ... done (  0.0 sec) ENN=   2756.384506782576 Eh

Diagonalization of the overlap matrix:
Smallest eigenvalue                        ... 2.303e-04
Time for diagonalization                   ...    0.031 sec
Threshold for overlap eigenvalues          ... 1.000e-07
Number of eigenvalues below threshold      ... 0
Time for construction of square roots      ...    0.058 sec
Total time needed                          ...    0.100 sec

-------------------
DFT GRID GENERATION
-------------------

General Integration Accuracy     IntAcc      ... 4.388
Radial Grid Type                 RadialGrid  ... OptM3 with GC (2021)
Angular Grid (max. ang.)         AngularGrid ... 4 (Lebedev-302)
Angular grid pruning method      GridPruning ... 4 (adaptive)
Weight generation scheme         WeightScheme... mBecke (2022)
Basis function cutoff            BFCut       ... 1.0000e-10
Integration weight cutoff        WCut        ... 1.0000e-14
Partially contracted basis set               ... off
Rotationally invariant grid construction     ... off
Angular grids for H and He will be reduced by one unit
Diffuse basis detected: some atoms will have their outermost
                        angular grid increased by 1.

Total number of grid points                  ...   192620
Total number of batches                      ...     3029
Average number of points per batch           ...       63
Average number of grid points per atom       ...     4698
Initializing property integral containers    ... done (  0.0 sec)

SHARK setup successfully completed in   3.1 seconds

Maximum memory used throughout the entire STARTUP-calculation: 101.4 MB
-------------------------------------------------------------------------------
                                 ORCA GUESS
                   Start orbitals & Density for SCF / CASSCF
-------------------------------------------------------------------------------

------------
SCF SETTINGS
------------
Hamiltonian:
 Density Functional     Method          .... DFT(GTOs)
  Functional kind                       .... Exchange
  Functional name                       .... Re-regularized SCAN exchange by Furness et al
  Functional family                     .... MGGA
  Functional refs                              
    [ 0] J. W. Furness, A. D. Kaplan, J. Ning, J. P. Perdew, and J. Sun.,  J. Phys. Chem. Lett. 11, 8208-8215 (2020), doi: 10.1021/acs.jpclett.0c02405
    [ 1] J. W. Furness, A. D. Kaplan, J. Ning, J. P. Perdew, and J. Sun.,  J. Phys. Chem. Lett. 11, 9248-9248 (2020), doi: 10.1021/acs.jpclett.0c03077
  Functional external parameters        .... 6
    Parameter  0 _c1        =  6.670000e-01 : c1 parameter        
    Parameter  1 _c2        =  8.000000e-01 : c2 parameter        
    Parameter  2 _d         =  1.240000e+00 : d parameter         
    Parameter  3 _k1        =  6.500000e-02 : k1 parameter        
    Parameter  4 _eta       =  1.000000e-03 : eta parameter       
    Parameter  5 _dp2       =  3.610000e-01 : dp2 parameter       
  Functional kind                       .... Correlation
  Functional name                       .... Re-regularized SCAN correlation by Furness et al
  Functional family                     .... MGGA
  Functional refs                              
    [ 0] J. W. Furness, A. D. Kaplan, J. Ning, J. P. Perdew, and J. Sun.,  J. Phys. Chem. Lett. 11, 8208-8215 (2020), doi: 10.1021/acs.jpclett.0c02405
    [ 1] J. W. Furness, A. D. Kaplan, J. Ning, J. P. Perdew, and J. Sun.,  J. Phys. Chem. Lett. 11, 9248-9248 (2020), doi: 10.1021/acs.jpclett.0c03077
  Functional external parameters        .... 1
    Parameter  0 _eta       =  1.000000e-03 : Regularization parameter
 Gradients option       PostSCFGGA      .... off
 RI-approximation to the Coulomb term is turned on
   Number of AuxJ basis functions       .... 1185


General Settings:
 Integral files         IntName         .... sp_solv
 Hartree-Fock type      HFTyp           .... RHF
 Total Charge           Charge          ....    0
 Multiplicity           Mult            ....    1
 Number of Electrons    NEL             ....  202
 Basis Dimension        Dim             ....  539
 Nuclear Repulsion      ENuc            ....   2756.3845067826 Eh

Convergence Acceleration:
 AO-DIIS                CNVDIIS         .... on
   Start iteration      DIISMaxIt       ....    12
   Startup error        DIISStart       ....  0.200000
   # of expansion vecs  DIISMaxEq       ....     5
   Bias factor          DIISBfac        ....   1.050
   Max. coefficient     DIISMaxC        ....  10.000
 MO-DIIS                CNVKDIIS        .... off
 Trust-Rad. Augm. Hess. CNVTRAH         .... auto
   Auto Start mean grad. ratio tolernc. ....  1.125000
   Auto Start start iteration           ....     1
   Auto Start num. interpolation iter.  ....    10
   Max. Number of Micro iterations      ....    24
   Max. Number of Macro iterations      .... Maxiter - #DIIS iter
   Number of Davidson start vectors     ....     2
   Converg. threshold    (grad. norm)   ....   3.330e-04
   Grad. Scal. Fac. for Micro threshold ....   0.100
   Minimum threshold for Micro iter.    ....   1.000e-02
   NR start threshold (gradient norm)   ....   1.000e-04
   Initial trust radius                 ....   0.400
   Minimum AH scaling param. (alpha)    ....   1.000
   Maximum AH scaling param. (alpha)    .... 1000.000
   Quad. conv. algorithm                .... NR
   White noise on init. David. guess    .... on
   Maximum white noise                  ....   0.010
   Pseudo random numbers                .... off
   Inactive MOs                         .... canonical
   Orbital update algorithm             .... Taylor
   Preconditioner                       .... Diag
   Full preconditioner red. dimension   ....   250
   COSX micro iterations for RIJONX calc.... off
 SOSCF                  CNVSOSCF        .... on
   Start iteration      SOSCFMaxIt      ....   150
   Startup grad/error   SOSCFStart      ....  0.003300
   Hessian update       SOSCFHessUp     .... L-BFGS
 Level Shifting         CNVShift        .... on
   Level shift para.    LevelShift      ....    0.2500
   Turn off err/grad.   ShiftErr        ....    0.0010
 Zerner damping         CNVZerner       .... off
 Static damping         CNVDamp         .... on
   Fraction old density DampFac         ....    0.7000
   Max. Damping (<1)    DampMax         ....    0.9800
   Min. Damping (>=0)   DampMin         ....    0.0000
   Turn off err/grad.   DampErr         ....    0.1000

SCF Procedure:
 Maximum # iterations   MaxIter         ....   125
 SCF integral mode      SCFMode         .... Direct
   Integral package                     .... SHARK and LIBINT hybrid scheme
 Reset frequency        DirectResetFreq ....    20
 Integral Threshold     Thresh          ....  1.000e-10 Eh
 Primitive CutOff       TCut            ....  1.000e-11 Eh

Convergence Tolerance:
 Convergence Check Mode ConvCheckMode   .... Total+1el-Energy
 Convergence forced     ConvForced      .... 0
 Energy Change          TolE            ....  1.000e-06 Eh
 1-El. energy change                    ....  1.000e-03 Eh
 Orbital Gradient       TolG            ....  3.330e-04
 Orbital Rotation angle TolX            ....  3.330e-04
 DIIS Error             TolErr          ....  1.000e-06

---------------------
INITIAL GUESS: MOREAD
---------------------
Guess MOs are being read from file: sp_solv.ges
Input Geometry matches current geometry (good)
Atom 0: N(Shells)= 9 and 6 - projection required
Input basis set needs projection
NBasis(read)= 334
NBasis(calc)= 539
Basis set overlap was calculated
Using GuessMode=FMatrix for the initial guess
C*T matrix was formed
Effective Fockian was calculated
Effective Fockian was diagonalized
Initial density was built
                      ------------------
                      INITIAL GUESS DONE (   0.2 sec)
                      ------------------
             **** ENERGY FILE WAS UPDATED (sp_solv.en.tmp) ****
Finished Guess after   0.6 sec
Maximum memory used throughout the entire GUESS-calculation: 58.5 MB

-------------------------------------------------------------------------------------------
                                      ORCA LEAN-SCF
                              memory conserving SCF solver
-------------------------------------------------------------------------------------------

--------------------
CPCM SOLVATION MODEL
--------------------
CPCM parameters:
  Epsilon                                         ...      78.3550
  Refrac                                          ...       1.3328
  Rsolv                                           ...       1.3000
  Surface type                                    ... GAUSSIAN VDW
  Discretization scheme                           ... Constant charge density
    Threshold for H atoms                         ...       5.0000 (charges/Ang^2)
    Threshold for non-H atoms                     ...       5.0000 (charges/Ang^2)
  Epsilon function type                           ...         CPCM
Solvent:                                          ... WATER
SMD-CDS solvent descriptors:
  Soln                                            ...       1.3328
  Soln25                                          ...       1.3323
  Sola                                            ...       0.0000
  Solb                                            ...       0.0000
  Solg                                            ...       0.0000
  Solc                                            ...       0.0000
  Solh                                            ...       0.0000
Radii:
  Scheme                                          ... Element-dependent radii
  Radius for C  used is    3.4960 Bohr (=   1.8500 Ang.)
  Radius for O  used is    2.8724 Bohr (=   1.5200 Ang.)
  Radius for P  used is    4.0062 Bohr (=   2.1200 Ang.)
  Radius for S  used is    4.7054 Bohr (=   2.4900 Ang.)
  Radius for H  used is    2.2677 Bohr (=   1.2000 Ang.)
Calculating surface                               ...        done! (  0.0s)
Cavity surface points                             ...         3321
Cavity Volume                                     ...    2770.1959
Cavity Surface-area                               ...    1355.2256
Calculating surface distance matrix               ...        done! (  0.1s)
Performing Cholesky decomposition & store         ...        done! (  0.5s)
Overall time for CPCM initialization              ...                 0.5s

----------------------------------------D-I-I-S--------------------------------------------
Iteration    Energy (Eh)           Delta-E    RMSDP     MaxDP     DIISErr   Damp  Time(sec)
-------------------------------------------------------------------------------------------
               ***  Starting incremental Fock matrix formation  ***
    1    -2932.0231420571899434     0.00e+00  2.20e-03  9.47e-02  6.34e-01  0.700  12.8
    2    -2932.1668421316589956    -1.44e-01  1.80e-03  7.57e-02  4.45e-01  0.700  10.9
    3    -2932.2684918856302829    -1.02e-01  1.33e-03  5.48e-02  3.12e-01  0.700  10.1
    4    -2932.3398513608462963    -7.14e-02  9.55e-04  3.89e-02  2.19e-01  0.700  10.1
                               ***Turning on AO-DIIS***
    5    -2932.3899029656913626    -5.01e-02  6.96e-04  2.78e-02  1.53e-01  0.700  10.0
    6    -2932.4249844160895009    -3.51e-02  4.95e-04  1.97e-02  1.07e-01  0.700   9.2
    7    -2932.4495811491397035    -2.46e-02  3.50e-04  1.38e-02  7.49e-02  0.700   9.4
    8    -2932.4668159825723706    -1.72e-02  8.22e-04  3.25e-02  5.25e-02  0.000   9.4
                              *** Initializing SOSCF ***
---------------------------------------S-O-S-C-F--------------------------------------
Iteration    Energy (Eh)           Delta-E    RMSDP     MaxDP     MaxGrad    Time(sec)
--------------------------------------------------------------------------------------
    9    -2932.5070864566723685    -4.03e-02  7.81e-06  4.75e-04  2.14e-04     9.5
               *** Restarting incremental Fock matrix formation ***
   10    -2932.5070872915785003    -8.35e-07  6.03e-06  5.26e-04  4.44e-05    11.5
                  *** Gradient check signals convergence ***

               *****************************************************
               *                     SUCCESS                       *
               *           SCF CONVERGED AFTER  10 CYCLES          *
               *****************************************************


SMD CDS free energy correction energy :                 7.28232     Kcal/mol
Total Energy after SMD CDS correction =             -2932.495482177 Eh
             **** ENERGY FILE WAS UPDATED (sp_solv.en.tmp) ****

----------------
TOTAL SCF ENERGY
----------------

Total Energy       :      -2932.49548217678739 Eh          -79797.25888 eV

Components:
Nuclear Repulsion  :       2756.38450678257595 Eh           75005.03561 eV
Electronic Energy  :      -5688.86678362014391 Eh         -154801.93516 eV
One Electron Energy:      -9534.17080126483415 Eh         -259437.97707 eV
Two Electron Energy:       3845.30401764469025 Eh          104636.04191 eV
CPCM Dielectric    :         -0.02481045401076 Eh              -0.67513 eV
SMD CDS (Gcds)     :          0.01160511479111 Eh               0.31579 eV

Virial components:
Potential Energy   :      -5856.18192406617709 Eh         -159354.81160 eV
Kinetic Energy     :       2923.68644188938924 Eh           79557.55271 eV
Virial Ratio       :          2.00301299077808

DFT components:
N(Alpha)           :      101.000059797057 electrons
N(Beta)            :      101.000059797057 electrons
N(Total)           :      202.000119594113 electrons
E(X)               :     -233.542837189492 Eh       
E(C)               :       -7.121192624199 Eh       
E(XC)              :     -240.664029813691 Eh       

CPCM Solvation Model Properties:
Surface-charge          :         -0.04563081295337
Corrected charge        :          0.00000000000000
Outlying charge corr.   :          0.00010687746792 Eh               0.00291 eV
Free-energy (cav+disp)  :          0.01160511479111 Eh               0.31579 eV

---------------
SCF CONVERGENCE
---------------

  Last Energy change         ...    8.3491e-07  Tolerance :   1.0000e-06
  Last MAX-Density change    ...    5.2639e-04  Tolerance :   1.0000e-05
  Last RMS-Density change    ...    6.0328e-06  Tolerance :   1.0000e-06
  Last DIIS Error            ...    2.1406e-04  Tolerance :   1.0000e-06
  Last Orbital Gradient      ...    4.4400e-05  Tolerance :   3.3300e-04
  Last Orbital Rotation      ...    1.5957e-04  Tolerance :   3.3300e-04


----------------
ORBITAL ENERGIES
----------------

  NO   OCC          E(Eh)            E(eV) 
   0   2.0000     -88.579975     -2410.3837 
   1   2.0000     -88.578869     -2410.3536 
   2   2.0000     -88.530422     -2409.0353 
   3   2.0000     -88.527074     -2408.9441 
   4   2.0000     -76.921413     -2093.1381 
   5   2.0000     -76.919807     -2093.0944 
   6   2.0000     -18.997458      -516.9471 
   7   2.0000     -18.995991      -516.9072 
   8   2.0000     -18.994785      -516.8744 
   9   2.0000     -18.992661      -516.8166 
  10   2.0000     -10.103147      -274.9206 
  11   2.0000     -10.091846      -274.6131 
  12   2.0000     -10.090818      -274.5851 
  13   2.0000     -10.090521      -274.5770 
  14   2.0000     -10.089401      -274.5466 
  15   2.0000     -10.020261      -272.6652 
  16   2.0000     -10.019058      -272.6324 
  17   2.0000     -10.018930      -272.6290 
  18   2.0000     -10.016476      -272.5622 
  19   2.0000      -7.874204      -214.2680 
  20   2.0000      -7.873080      -214.2374 
  21   2.0000      -7.825438      -212.9410 
  22   2.0000      -7.822415      -212.8587 
  23   2.0000      -6.599539      -179.5826 
  24   2.0000      -6.598517      -179.5548 
  25   2.0000      -5.821015      -158.3979 
  26   2.0000      -5.819879      -158.3669 
  27   2.0000      -5.818140      -158.3196 
  28   2.0000      -5.816871      -158.2851 
  29   2.0000      -5.811344      -158.1347 
  30   2.0000      -5.810373      -158.1083 
  31   2.0000      -5.772938      -157.0896 
  32   2.0000      -5.769977      -157.0091 
  33   2.0000      -5.765750      -156.8940 
  34   2.0000      -5.765510      -156.8875 
  35   2.0000      -5.762686      -156.8107 
  36   2.0000      -5.762408      -156.8031 
  37   2.0000      -4.745143      -129.1219 
  38   2.0000      -4.744726      -129.1106 
  39   2.0000      -4.743842      -129.0865 
  40   2.0000      -4.743382      -129.0740 
  41   2.0000      -4.743044      -129.0648 
  42   2.0000      -4.742469      -129.0491 
  43   2.0000      -1.053634       -28.6708 
  44   2.0000      -1.053262       -28.6607 
  45   2.0000      -1.014138       -27.5961 
  46   2.0000      -1.013162       -27.5695 
  47   2.0000      -0.804780       -21.8992 
  48   2.0000      -0.756689       -20.5906 
  49   2.0000      -0.745179       -20.2774 
  50   2.0000      -0.726578       -19.7712 
  51   2.0000      -0.724033       -19.7019 
  52   2.0000      -0.711731       -19.3672 
  53   2.0000      -0.689713       -18.7680 
  54   2.0000      -0.674888       -18.3646 
  55   2.0000      -0.632168       -17.2022 
  56   2.0000      -0.623232       -16.9590 
  57   2.0000      -0.601413       -16.3653 
  58   2.0000      -0.599713       -16.3190 
  59   2.0000      -0.593580       -16.1521 
  60   2.0000      -0.523389       -14.2421 
  61   2.0000      -0.512854       -13.9555 
  62   2.0000      -0.491432       -13.3725 
  63   2.0000      -0.489299       -13.3145 
  64   2.0000      -0.476426       -12.9642 
  65   2.0000      -0.458457       -12.4752 
  66   2.0000      -0.455881       -12.4052 
  67   2.0000      -0.454760       -12.3747 
  68   2.0000      -0.442877       -12.0513 
  69   2.0000      -0.430907       -11.7256 
  70   2.0000      -0.415604       -11.3091 
  71   2.0000      -0.414079       -11.2677 
  72   2.0000      -0.409363       -11.1393 
  73   2.0000      -0.405313       -11.0291 
  74   2.0000      -0.403078       -10.9683 
  75   2.0000      -0.389140       -10.5890 
  76   2.0000      -0.379335       -10.3222 
  77   2.0000      -0.366447        -9.9715 
  78   2.0000      -0.366094        -9.9619 
  79   2.0000      -0.361646        -9.8409 
  80   2.0000      -0.356951        -9.7131 
  81   2.0000      -0.353778        -9.6268 
  82   2.0000      -0.351174        -9.5559 
  83   2.0000      -0.348433        -9.4813 
  84   2.0000      -0.342459        -9.3188 
  85   2.0000      -0.333828        -9.0839 
  86   2.0000      -0.321764        -8.7557 
  87   2.0000      -0.306483        -8.3398 
  88   2.0000      -0.305234        -8.3058 
  89   2.0000      -0.303486        -8.2583 
  90   2.0000      -0.299269        -8.1435 
  91   2.0000      -0.290712        -7.9107 
  92   2.0000      -0.285341        -7.7645 
  93   2.0000      -0.280477        -7.6322 
  94   2.0000      -0.277653        -7.5553 
  95   2.0000      -0.251791        -6.8516 
  96   2.0000      -0.238763        -6.4971 
  97   2.0000      -0.234516        -6.3815 
  98   2.0000      -0.226294        -6.1578 
  99   2.0000      -0.222749        -6.0613 
 100   2.0000      -0.220971        -6.0129 
 101   0.0000      -0.051621        -1.4047 
 102   0.0000      -0.032494        -0.8842 
 103   0.0000      -0.006478        -0.1763 
 104   0.0000      -0.004414        -0.1201 
 105   0.0000       0.015055         0.4097 
 106   0.0000       0.024468         0.6658 
 107   0.0000       0.029610         0.8057 
 108   0.0000       0.031981         0.8702 
 109   0.0000       0.045264         1.2317 
 110   0.0000       0.060823         1.6551 
 111   0.0000       0.077717         2.1148 
*Only the first 10 virtual orbitals were printed.

                    ********************************
                    * MULLIKEN POPULATION ANALYSIS *
                    ********************************

-----------------------
MULLIKEN ATOMIC CHARGES
-----------------------
   0 C :   -0.483308
   1 C :   -0.149846
   2 O :   -0.291824
   3 P :    0.717669
   4 S :   -0.529124
   5 O :   -0.331899
   6 C :   -0.150214
   7 C :   -0.489203
   8 S :   -0.128197
   9 C :   -0.246348
  10 S :   -0.179665
  11 P :    0.687871
  12 S :   -0.520511
  13 O :   -0.288019
  14 C :   -0.140098
  15 C :   -0.478686
  16 O :   -0.300973
  17 C :   -0.140124
  18 C :   -0.480715
  19 H :    0.172348
  20 H :    0.167747
  21 H :    0.170033
  22 H :    0.180360
  23 H :    0.177481
  24 H :    0.176205
  25 H :    0.178058
  26 H :    0.172879
  27 H :    0.170193
  28 H :    0.173307
  29 H :    0.234161
  30 H :    0.232964
  31 H :    0.183470
  32 H :    0.174658
  33 H :    0.166851
  34 H :    0.177083
  35 H :    0.168509
  36 H :    0.163517
  37 H :    0.178294
  38 H :    0.169383
  39 H :    0.169400
  40 H :    0.166311
Sum of atomic charges:    0.0000000

--------------------------------
MULLIKEN REDUCED ORBITAL CHARGES
--------------------------------
  0 C s       :     3.334320  s :     3.334320
      pz      :     1.118570  p :     3.123260
      px      :     0.942172
      py      :     1.062518
      dz2     :     0.005376  d :     0.025728
      dxz     :     0.001937
      dyz     :     0.005988
      dx2y2   :     0.004376
      dxy     :     0.008051

  1 C s       :     3.293557  s :     3.293557
      pz      :     0.763683  p :     2.802315
      px      :     1.009825
      py      :     1.028807
      dz2     :     0.014524  d :     0.053974
      dxz     :     0.008541
      dyz     :     0.013728
      dx2y2   :     0.006069
      dxy     :     0.011112

  2 O s       :     3.729592  s :     3.729592
      pz      :     1.408668  p :     4.537748
      px      :     1.725269
      py      :     1.403811
      dz2     :     0.006173  d :     0.024484
      dxz     :     0.007286
      dyz     :    -0.011019
      dx2y2   :     0.004593
      dxy     :     0.017451

  3 P s       :     5.114129  s :     5.114129
      pz      :     2.828625  p :     8.455947
      px      :     2.799281
      py      :     2.828041
      dz2     :     0.156063  d :     0.712256
      dxz     :     0.157419
      dyz     :     0.114116
      dx2y2   :     0.144701
      dxy     :     0.139957

  4 S s       :     5.909410  s :     5.909410
      pz      :     3.373962  p :    10.552560
      px      :     3.686908
      py      :     3.491690
      dz2     :     0.015404  d :     0.067153
      dxz     :     0.010584
      dyz     :     0.023843
      dx2y2   :     0.008927
      dxy     :     0.008395

  5 O s       :     3.742930  s :     3.742930
      pz      :     1.716573  p :     4.556487
      px      :     1.218703
      py      :     1.621211
      dz2     :     0.002860  d :     0.032482
      dxz     :     0.003859
      dyz     :     0.006800
      dx2y2   :     0.002584
      dxy     :     0.016380

  6 C s       :     3.292405  s :     3.292405
      pz      :     1.042585  p :     2.803379
      px      :     0.809490
      py      :     0.951304
      dz2     :     0.009179  d :     0.054429
      dxz     :     0.009141
      dyz     :     0.011671
      dx2y2   :     0.007916
      dxy     :     0.016523

  7 C s       :     3.334488  s :     3.334488
      pz      :     0.999622  p :     3.129054
      px      :     1.111452
      py      :     1.017980
      dz2     :     0.005012  d :     0.025661
      dxz     :     0.004041
      dyz     :     0.007351
      dx2y2   :     0.002456
      dxy     :     0.006802

  8 S s       :     5.908650  s :     5.908650
      pz      :     3.305230  p :    10.113669
      px      :     3.209634
      py      :     3.598805
      dz2     :     0.018743  d :     0.105878
      dxz     :     0.037350
      dyz     :     0.019859
      dx2y2   :     0.013341
      dxy     :     0.016587

  9 C s       :     3.188759  s :     3.188759
      pz      :     1.088698  p :     3.021815
      px      :     0.990807
      py      :     0.942311
      dz2     :     0.002828  d :     0.035773
      dxz     :     0.010562
      dyz     :     0.009163
      dx2y2   :     0.004970
      dxy     :     0.008251

 10 S s       :     5.918904  s :     5.918904
      pz      :     3.337070  p :    10.153857
      px      :     3.339121
      py      :     3.477667
      dz2     :     0.018644  d :     0.106904
      dxz     :     0.033481
      dyz     :     0.021118
      dx2y2   :     0.015518
      dxy     :     0.018143

 11 P s       :     5.148221  s :     5.148221
      pz      :     2.815774  p :     8.452630
      px      :     2.818147
      py      :     2.818709
      dz2     :     0.152438  d :     0.711278
      dxz     :     0.142453
      dyz     :     0.131356
      dx2y2   :     0.145091
      dxy     :     0.139941

 12 S s       :     5.891776  s :     5.891776
      pz      :     3.424784  p :    10.564080
      px      :     3.685974
      py      :     3.453322
      dz2     :     0.013537  d :     0.064656
      dxz     :     0.009522
      dyz     :     0.023746
      dx2y2   :     0.009961
      dxy     :     0.007891

 13 O s       :     3.717350  s :     3.717350
      pz      :     1.664200  p :     4.550411
      px      :     1.650939
      py      :     1.235272
      dz2     :    -0.000645  d :     0.020259
      dxz     :     0.004070
      dyz     :     0.010801
      dx2y2   :     0.006702
      dxy     :    -0.000669

 14 C s       :     3.283314  s :     3.283314
      pz      :     0.991718  p :     2.803170
      px      :     0.982655
      py      :     0.828798
      dz2     :     0.008346  d :     0.053614
      dxz     :     0.008014
      dyz     :     0.015305
      dx2y2   :     0.011667
      dxy     :     0.010282

 15 C s       :     3.321384  s :     3.321384
      pz      :     0.980194  p :     3.131463
      px      :     1.066241
      py      :     1.085028
      dz2     :     0.005566  d :     0.025839
      dxz     :     0.004366
      dyz     :     0.007023
      dx2y2   :     0.004569
      dxy     :     0.004314

 16 O s       :     3.733904  s :     3.733904
      pz      :     1.546472  p :     4.536221
      px      :     1.368871
      py      :     1.620878
      dz2     :     0.005009  d :     0.030848
      dxz     :     0.004114
      dyz     :     0.011922
      dx2y2   :    -0.000669
      dxy     :     0.010472

 17 C s       :     3.281366  s :     3.281366
      pz      :     0.921824  p :     2.804579
      px      :     0.884999
      py      :     0.997756
      dz2     :     0.006743  d :     0.054179
      dxz     :     0.013218
      dyz     :     0.013568
      dx2y2   :     0.007017
      dxy     :     0.013634

 18 C s       :     3.332176  s :     3.332176
      pz      :     1.054536  p :     3.123048
      px      :     0.987508
      py      :     1.081004
      dz2     :     0.001279  d :     0.025492
      dxz     :     0.007484
      dyz     :     0.007689
      dx2y2   :     0.002750
      dxy     :     0.006290

 19 H s       :     0.809141  s :     0.809141
      pz      :     0.009412  p :     0.018510
      px      :     0.003555
      py      :     0.005543

 20 H s       :     0.813869  s :     0.813869
      pz      :     0.003589  p :     0.018384
      px      :     0.007138
      py      :     0.007657

 21 H s       :     0.811748  s :     0.811748
      pz      :     0.007882  p :     0.018219
      px      :     0.003806
      py      :     0.006531

 22 H s       :     0.802048  s :     0.802048
      pz      :     0.002328  p :     0.017592
      px      :     0.007691
      py      :     0.007573

 23 H s       :     0.804579  s :     0.804579
      pz      :     0.006929  p :     0.017940
      px      :     0.003579
      py      :     0.007432

 24 H s       :     0.806234  s :     0.806234
      pz      :     0.004347  p :     0.017561
      px      :     0.006987
      py      :     0.006228

 25 H s       :     0.804109  s :     0.804109
      pz      :     0.009571  p :     0.017833
      px      :     0.003473
      py      :     0.004789

 26 H s       :     0.808632  s :     0.808632
      pz      :     0.004490  p :     0.018489
      px      :     0.007069
      py      :     0.006929

 27 H s       :     0.811593  s :     0.811593
      pz      :     0.008607  p :     0.018214
      px      :     0.004851
      py      :     0.004756

 28 H s       :     0.808168  s :     0.808168
      pz      :     0.004165  p :     0.018525
      px      :     0.008821
      py      :     0.005539

 29 H s       :     0.746278  s :     0.746278
      pz      :     0.007261  p :     0.019561
      px      :     0.006172
      py      :     0.006127

 30 H s       :     0.747184  s :     0.747184
      pz      :     0.006757  p :     0.019852
      px      :     0.007058
      py      :     0.006037

 31 H s       :     0.798301  s :     0.798301
      pz      :     0.003886  p :     0.018228
      px      :     0.011098
      py      :     0.003244

 32 H s       :     0.807832  s :     0.807832
      pz      :     0.007767  p :     0.017510
      px      :     0.003159
      py      :     0.006585

 33 H s       :     0.814744  s :     0.814744
      pz      :     0.007997  p :     0.018405
      px      :     0.003562
      py      :     0.006846

 34 H s       :     0.804455  s :     0.804455
      pz      :     0.004331  p :     0.018461
      px      :     0.005131
      py      :     0.008999

 35 H s       :     0.813268  s :     0.813268
      pz      :     0.003853  p :     0.018223
      px      :     0.010562
      py      :     0.003808

 36 H s       :     0.818416  s :     0.818416
      pz      :     0.005135  p :     0.018067
      px      :     0.005060
      py      :     0.007872

 37 H s       :     0.804197  s :     0.804197
      pz      :     0.007160  p :     0.017509
      px      :     0.004080
      py      :     0.006269

 38 H s       :     0.811823  s :     0.811823
      pz      :     0.007376  p :     0.018793
      px      :     0.004748
      py      :     0.006670

 39 H s       :     0.812079  s :     0.812079
      pz      :     0.006147  p :     0.018521
      px      :     0.006764
      py      :     0.005609

 40 H s       :     0.815377  s :     0.815377
      pz      :     0.005431  p :     0.018311
      px      :     0.005448
      py      :     0.007433


------------------------
MULLIKEN OVERLAP CHARGES
------------------------
B(  0-C ,  1-C ) :   0.3928 B(  0-C ,  2-O ) :  -0.1535 B(  0-C ,  5-O ) :   0.0518 
B(  0-C , 19-H ) :   0.7944 B(  0-C , 20-H ) :   0.8180 B(  0-C , 21-H ) :   0.8261 
B(  0-C , 23-H ) :  -0.0939 B(  1-C ,  2-O ) :   0.2661 B(  1-C ,  3-P ) :  -0.1562 
B(  1-C , 19-H ) :  -0.0613 B(  1-C , 20-H ) :  -0.0693 B(  1-C , 21-H ) :  -0.0740 
B(  1-C , 22-H ) :   0.8115 B(  1-C , 23-H ) :   0.8577 B(  2-O ,  3-P ) :   0.6001 
B(  2-O ,  4-S ) :  -0.0890 B(  2-O ,  5-O ) :  -0.2205 B(  2-O ,  8-S ) :  -0.1637 
B(  2-O , 22-H ) :  -0.0972 B(  2-O , 23-H ) :  -0.0701 B(  3-P ,  4-S ) :   1.1970 
B(  3-P ,  5-O ) :   0.5153 B(  3-P ,  6-C ) :  -0.1476 B(  3-P ,  8-S ) :   0.7864 
B(  3-P ,  9-C ) :  -0.1081 B(  4-S ,  5-O ) :  -0.0889 B(  4-S ,  8-S ) :  -0.1035 
B(  5-O ,  6-C ) :   0.3369 B(  5-O ,  7-C ) :  -0.1667 B(  5-O ,  8-S ) :  -0.0827 
B(  5-O , 24-H ) :  -0.1000 B(  5-O , 25-H ) :  -0.0796 B(  6-C ,  7-C ) :   0.4180 
B(  6-C , 24-H ) :   0.7957 B(  6-C , 25-H ) :   0.8775 B(  6-C , 26-H ) :  -0.0865 
B(  6-C , 27-H ) :  -0.0680 B(  7-C , 25-H ) :  -0.1134 B(  7-C , 26-H ) :   0.8406 
B(  7-C , 27-H ) :   0.8117 B(  7-C , 28-H ) :   0.7792 B(  8-S ,  9-C ) :   0.3759 
B(  8-S , 10-S ) :  -0.1691 B(  8-S , 29-H ) :  -0.0588 B(  8-S , 30-H ) :  -0.0727 
B(  9-C , 10-S ) :   0.3627 B(  9-C , 11-P ) :  -0.0902 B(  9-C , 29-H ) :   0.8080 
B(  9-C , 30-H ) :   0.7826 B( 10-S , 11-P ) :   0.6256 B( 10-S , 12-S ) :  -0.1167 
B( 10-S , 13-O ) :  -0.1110 B( 10-S , 16-O ) :  -0.0944 B( 10-S , 29-H ) :  -0.0818 
B( 10-S , 30-H ) :  -0.0562 B( 11-P , 12-S ) :   1.2883 B( 11-P , 13-O ) :   0.6916 
B( 11-P , 14-C ) :  -0.1900 B( 11-P , 16-O ) :   0.4884 B( 11-P , 17-C ) :  -0.1447 
B( 12-S , 13-O ) :  -0.1525 B( 12-S , 16-O ) :  -0.0889 B( 13-O , 14-C ) :   0.3572 
B( 13-O , 15-C ) :  -0.1767 B( 13-O , 16-O ) :  -0.2186 B( 13-O , 31-H ) :  -0.0788 
B( 13-O , 32-H ) :  -0.0989 B( 14-C , 15-C ) :   0.2959 B( 14-C , 16-O ) :  -0.0675 
B( 14-C , 31-H ) :   0.8467 B( 14-C , 32-H ) :   0.7981 B( 14-C , 33-H ) :  -0.0750 
B( 14-C , 35-H ) :  -0.0584 B( 15-C , 16-O ) :   0.0898 B( 15-C , 31-H ) :  -0.1115 
B( 15-C , 33-H ) :   0.8256 B( 15-C , 34-H ) :   0.7762 B( 15-C , 35-H ) :   0.7960 
B( 16-O , 17-C ) :   0.2580 B( 16-O , 18-C ) :  -0.1085 B( 16-O , 36-H ) :  -0.0734 
B( 16-O , 37-H ) :  -0.0943 B( 17-C , 18-C ) :   0.5235 B( 17-C , 36-H ) :   0.8176 
B( 17-C , 37-H ) :   0.8274 B( 17-C , 38-H ) :  -0.0603 B( 17-C , 39-H ) :  -0.0721 
B( 17-C , 40-H ) :  -0.0780 B( 18-C , 36-H ) :  -0.0716 B( 18-C , 37-H ) :  -0.0581 
B( 18-C , 38-H ) :   0.8224 B( 18-C , 39-H ) :   0.8072 B( 18-C , 40-H ) :   0.8402 
B( 20-H , 21-H ) :  -0.0504 B( 26-H , 27-H ) :  -0.0540 B( 33-H , 35-H ) :  -0.0517 



                     *******************************
                     * LOEWDIN POPULATION ANALYSIS *
                     *******************************

----------------------
LOEWDIN ATOMIC CHARGES
----------------------
   0 C :   -0.401522
   1 C :    0.023563
   2 O :   -0.701788
   3 P :    0.384749
   4 S :   -0.159600
   5 O :   -0.669957
   6 C :    0.026395
   7 C :   -0.409393
   8 S :    0.163180
   9 C :   -0.422382
  10 S :    0.145238
  11 P :    0.385438
  12 S :   -0.156052
  13 O :   -0.669952
  14 C :    0.033108
  15 C :   -0.402829
  16 O :   -0.677448
  17 C :    0.029584
  18 C :   -0.406167
  19 H :    0.168969
  20 H :    0.162663
  21 H :    0.164416
  22 H :    0.191267
  23 H :    0.182459
  24 H :    0.191470
  25 H :    0.181846
  26 H :    0.161774
  27 H :    0.163785
  28 H :    0.168862
  29 H :    0.197427
  30 H :    0.198465
  31 H :    0.196255
  32 H :    0.192044
  33 H :    0.162858
  34 H :    0.170906
  35 H :    0.166717
  36 H :    0.180031
  37 H :    0.190871
  38 H :    0.162755
  39 H :    0.167447
  40 H :    0.162548

-------------------------------
LOEWDIN REDUCED ORBITAL CHARGES
-------------------------------
  0 C s       :     2.974980  s :     2.974980
      pz      :     1.155428  p :     3.366130
      px      :     1.069975
      py      :     1.140726
      dz2     :     0.013263  d :     0.060412
      dxz     :     0.003784
      dyz     :     0.015250
      dx2y2   :     0.009481
      dxy     :     0.018635

  1 C s       :     2.876282  s :     2.876282
      pz      :     0.855156  p :     2.979394
      px      :     1.072331
      py      :     1.051907
      dz2     :     0.033867  d :     0.120760
      dxz     :     0.017108
      dyz     :     0.032374
      dx2y2   :     0.012080
      dxy     :     0.025330

  2 O s       :     3.468522  s :     3.468522
      pz      :     1.497489  p :     4.737169
      px      :     1.688967
      py      :     1.550714
      dz2     :     0.114855  d :     0.496097
      dxz     :     0.084707
      dyz     :     0.135944
      dx2y2   :     0.074356
      dxy     :     0.086234

  3 P s       :     4.650722  s :     4.650722
      pz      :     2.847292  p :     8.392376
      px      :     2.744483
      py      :     2.800600
      dz2     :     0.280904  d :     1.572154
      dxz     :     0.361702
      dyz     :     0.318986
      dx2y2   :     0.296790
      dxy     :     0.313772

  4 S s       :     5.564808  s :     5.564808
      pz      :     3.381774  p :    10.456432
      px      :     3.611782
      py      :     3.462876
      dz2     :     0.028659  d :     0.138359
      dxz     :     0.018695
      dyz     :     0.058302
      dx2y2   :     0.017634
      dxy     :     0.015069

  5 O s       :     3.466008  s :     3.466008
      pz      :     1.684682  p :     4.738103
      px      :     1.432099
      py      :     1.621322
      dz2     :     0.058115  d :     0.465846
      dxz     :     0.106584
      dyz     :     0.068027
      dx2y2   :     0.109838
      dxy     :     0.123283

  6 C s       :     2.875296  s :     2.875296
      pz      :     1.080028  p :     2.976272
      px      :     0.893630
      py      :     1.002614
      dz2     :     0.018369  d :     0.122036
      dxz     :     0.019570
      dyz     :     0.028291
      dx2y2   :     0.017046
      dxy     :     0.038760

  7 C s       :     2.976691  s :     2.976691
      pz      :     1.108410  p :     3.372428
      px      :     1.162530
      py      :     1.101488
      dz2     :     0.011154  d :     0.060274
      dxz     :     0.009982
      dyz     :     0.017093
      dx2y2   :     0.005074
      dxy     :     0.016972

  8 S s       :     5.440330  s :     5.440330
      pz      :     3.336001  p :    10.098825
      px      :     3.220746
      py      :     3.542078
      dz2     :     0.044470  d :     0.297664
      dxz     :     0.107438
      dyz     :     0.054528
      dx2y2   :     0.037731
      dxy     :     0.053497

  9 C s       :     3.011789  s :     3.011789
      pz      :     1.135739  p :     3.327393
      px      :     1.109214
      py      :     1.082440
      dz2     :     0.005185  d :     0.083200
      dxz     :     0.026629
      dyz     :     0.023372
      dx2y2   :     0.008893
      dxy     :     0.019120

 10 S s       :     5.442967  s :     5.442967
      pz      :     3.357760  p :    10.108772
      px      :     3.299194
      py      :     3.451817
      dz2     :     0.045236  d :     0.303024
      dxz     :     0.095794
      dyz     :     0.061523
      dx2y2   :     0.039968
      dxy     :     0.060503

 11 P s       :     4.649917  s :     4.649917
      pz      :     2.837471  p :     8.383260
      px      :     2.740119
      py      :     2.805670
      dz2     :     0.267225  d :     1.581384
      dxz     :     0.352008
      dyz     :     0.368376
      dx2y2   :     0.298108
      dxy     :     0.295667

 12 S s       :     5.559554  s :     5.559554
      pz      :     3.417372  p :    10.459678
      px      :     3.610575
      py      :     3.431731
      dz2     :     0.023200  d :     0.136821
      dxz     :     0.017895
      dyz     :     0.057954
      dx2y2   :     0.020482
      dxy     :     0.017291

 13 O s       :     3.458909  s :     3.458909
      pz      :     1.646433  p :     4.743007
      px      :     1.639960
      py      :     1.456613
      dz2     :     0.065728  d :     0.468036
      dxz     :     0.056149
      dyz     :     0.122277
      dx2y2   :     0.120198
      dxy     :     0.103685

 14 C s       :     2.876049  s :     2.876049
      pz      :     1.047528  p :     2.971337
      px      :     1.022848
      py      :     0.900961
      dz2     :     0.017200  d :     0.119506
      dxz     :     0.017768
      dyz     :     0.036746
      dx2y2   :     0.026181
      dxy     :     0.021611

 15 C s       :     2.973908  s :     2.973908
      pz      :     1.087525  p :     3.368241
      px      :     1.142478
      py      :     1.138238
      dz2     :     0.012286  d :     0.060680
      dxz     :     0.010088
      dyz     :     0.016681
      dx2y2   :     0.011522
      dxy     :     0.010103

 16 O s       :     3.465509  s :     3.465509
      pz      :     1.606536  p :     4.738733
      px      :     1.501911
      py      :     1.630286
      dz2     :     0.074904  d :     0.473206
      dxz     :     0.114360
      dyz     :     0.085197
      dx2y2   :     0.089921
      dxy     :     0.108825

 17 C s       :     2.874998  s :     2.874998
      pz      :     0.979996  p :     2.974052
      px      :     0.970281
      py      :     1.023776
      dz2     :     0.012604  d :     0.121365
      dxz     :     0.030323
      dyz     :     0.032233
      dx2y2   :     0.014360
      dxy     :     0.031845

 18 C s       :     2.976539  s :     2.976539
      pz      :     1.136929  p :     3.369614
      px      :     1.091496
      py      :     1.141189
      dz2     :     0.002412  d :     0.060014
      dxz     :     0.018213
      dyz     :     0.019016
      dx2y2   :     0.005496
      dxy     :     0.014876

 19 H s       :     0.786420  s :     0.786420
      pz      :     0.023416  p :     0.044610
      px      :     0.008111
      py      :     0.013083

 20 H s       :     0.792977  s :     0.792977
      pz      :     0.007984  p :     0.044360
      px      :     0.017241
      py      :     0.019135

 21 H s       :     0.791680  s :     0.791680
      pz      :     0.019519  p :     0.043904
      px      :     0.008446
      py      :     0.015939

 22 H s       :     0.767962  s :     0.767962
      pz      :     0.004898  p :     0.040771
      px      :     0.018454
      py      :     0.017420

 23 H s       :     0.774919  s :     0.774919
      pz      :     0.015633  p :     0.042622
      px      :     0.008541
      py      :     0.018448

 24 H s       :     0.767868  s :     0.767868
      pz      :     0.009930  p :     0.040663
      px      :     0.014857
      py      :     0.015876

 25 H s       :     0.775787  s :     0.775787
      pz      :     0.023766  p :     0.042367
      px      :     0.007554
      py      :     0.011047

 26 H s       :     0.793531  s :     0.793531
      pz      :     0.010747  p :     0.044696
      px      :     0.017050
      py      :     0.016899

 27 H s       :     0.792293  s :     0.792293
      pz      :     0.021255  p :     0.043922
      px      :     0.011323
      py      :     0.011344

 28 H s       :     0.786467  s :     0.786467
      pz      :     0.009444  p :     0.044670
      px      :     0.022199
      py      :     0.013028

 29 H s       :     0.753105  s :     0.753105
      pz      :     0.019012  p :     0.049469
      px      :     0.015029
      py      :     0.015428

 30 H s       :     0.751172  s :     0.751172
      pz      :     0.017659  p :     0.050363
      px      :     0.017504
      py      :     0.015199

 31 H s       :     0.759717  s :     0.759717
      pz      :     0.009064  p :     0.044027
      px      :     0.027142
      py      :     0.007821

 32 H s       :     0.767278  s :     0.767278
      pz      :     0.019451  p :     0.040678
      px      :     0.007066
      py      :     0.014161

 33 H s       :     0.792723  s :     0.792723
      pz      :     0.019435  p :     0.044420
      px      :     0.007926
      py      :     0.017059

 34 H s       :     0.784503  s :     0.784503
      pz      :     0.009922  p :     0.044592
      px      :     0.012364
      py      :     0.022306

 35 H s       :     0.789239  s :     0.789239
      pz      :     0.008878  p :     0.044044
      px      :     0.026449
      py      :     0.008718

 36 H s       :     0.777552  s :     0.777552
      pz      :     0.011405  p :     0.042417
      px      :     0.012899
      py      :     0.018113

 37 H s       :     0.768560  s :     0.768560
      pz      :     0.015823  p :     0.040569
      px      :     0.008824
      py      :     0.015922

 38 H s       :     0.791667  s :     0.791667
      pz      :     0.018020  p :     0.045578
      px      :     0.011235
      py      :     0.016323

 39 H s       :     0.787904  s :     0.787904
      pz      :     0.015177  p :     0.044649
      px      :     0.016259
      py      :     0.013214

 40 H s       :     0.793500  s :     0.793500
      pz      :     0.012788  p :     0.043952
      px      :     0.012633
      py      :     0.018531


---------------------------------
LOEWDIN BOND ORDERS (THRESH 0.050000)
---------------------------------
B(  0-C ,  1-C ) :   1.0952 B(  0-C ,  2-O ) :   0.1561 B(  0-C , 19-H ) :   0.9120 
B(  0-C , 20-H ) :   0.9149 B(  0-C , 21-H ) :   0.9206 B(  1-C ,  2-O ) :   1.2858 
B(  1-C ,  3-P ) :   0.0962 B(  1-C , 19-H ) :   0.0507 B(  1-C , 22-H ) :   0.8222 
B(  1-C , 23-H ) :   0.8253 B(  2-O ,  3-P ) :   1.5652 B(  2-O ,  4-S ) :   0.1843 
B(  2-O ,  5-O ) :   0.2170 B(  2-O ,  8-S ) :   0.1704 B(  2-O , 22-H ) :   0.1004 
B(  2-O , 23-H ) :   0.0969 B(  3-P ,  4-S ) :   1.9948 B(  3-P ,  5-O ) :   1.5744 
B(  3-P ,  6-C ) :   0.0946 B(  3-P ,  8-S ) :   1.2311 B(  3-P ,  9-C ) :   0.0946 
B(  4-S ,  5-O ) :   0.1818 B(  4-S ,  8-S ) :   0.1454 B(  4-S ,  9-C ) :   0.0521 
B(  5-O ,  6-C ) :   1.2990 B(  5-O ,  7-C ) :   0.1564 B(  5-O ,  8-S ) :   0.1408 
B(  5-O , 24-H ) :   0.1006 B(  5-O , 25-H ) :   0.0979 B(  6-C ,  7-C ) :   1.0939 
B(  6-C , 24-H ) :   0.8230 B(  6-C , 25-H ) :   0.8256 B(  6-C , 28-H ) :   0.0510 
B(  7-C , 26-H ) :   0.9159 B(  7-C , 27-H ) :   0.9198 B(  7-C , 28-H ) :   0.9114 
B(  8-S ,  9-C ) :   1.2944 B(  8-S , 10-S ) :   0.2146 B(  8-S , 29-H ) :   0.0601 
B(  8-S , 30-H ) :   0.0561 B(  9-C , 10-S ) :   1.3118 B(  9-C , 11-P ) :   0.0915 
B(  9-C , 12-S ) :   0.0618 B(  9-C , 29-H ) :   0.8316 B(  9-C , 30-H ) :   0.8270 
B( 10-S , 11-P ) :   1.2027 B( 10-S , 12-S ) :   0.1526 B( 10-S , 13-O ) :   0.1464 
B( 10-S , 16-O ) :   0.1493 B( 10-S , 29-H ) :   0.0565 B( 10-S , 30-H ) :   0.0617 
B( 11-P , 12-S ) :   2.0114 B( 11-P , 13-O ) :   1.6123 B( 11-P , 14-C ) :   0.0862 
B( 11-P , 16-O ) :   1.5729 B( 11-P , 17-C ) :   0.0940 B( 12-S , 13-O ) :   0.1923 
B( 12-S , 16-O ) :   0.1739 B( 13-O , 14-C ) :   1.2808 B( 13-O , 15-C ) :   0.1466 
B( 13-O , 16-O ) :   0.2162 B( 13-O , 31-H ) :   0.0950 B( 13-O , 32-H ) :   0.1017 
B( 14-C , 15-C ) :   1.0993 B( 14-C , 31-H ) :   0.8107 B( 14-C , 32-H ) :   0.8215 
B( 14-C , 34-H ) :   0.0524 B( 15-C , 33-H ) :   0.9115 B( 15-C , 34-H ) :   0.9076 
B( 15-C , 35-H ) :   0.9152 B( 16-O , 17-C ) :   1.2914 B( 16-O , 18-C ) :   0.1591 
B( 16-O , 36-H ) :   0.0973 B( 16-O , 37-H ) :   0.1006 B( 17-C , 18-C ) :   1.0936 
[...]

                    522       523       524       525       526       527   
                  18.86579  18.89109  19.08924  19.21274  21.96301  21.96530
                   0.00000   0.00000   0.00000   0.00000   0.00000   0.00000
                  --------  --------  --------  --------  --------  --------
 0 C  s               0.0       0.0       0.0       0.0       9.3      51.4
 3 P  s               0.2       0.0       0.0       0.0       0.0       0.0
 3 P  pz              0.1       0.0       0.0       0.0       0.0       0.0
 3 P  py              0.1       0.0       0.0       0.0       0.0       0.0
 4 S  s              92.2       4.9       0.4       1.3       0.0       0.0
 6 C  s               0.0       0.0       0.0       0.0       0.1       0.5
 7 C  s               0.0       0.0       0.0       0.0       8.7      27.9
 8 S  s               0.0       1.5      64.0      33.4       0.0       0.0
 9 C  s               0.0       0.0       0.0       1.1       0.9       0.4
10 S  s               1.5       0.4      34.2      62.6       0.0       0.0
11 P  s               0.0       0.1       0.0       0.1       0.0       0.0
11 P  pz              0.0       0.1       0.0       0.0       0.0       0.0
11 P  py              0.0       0.1       0.0       0.0       0.0       0.0
12 S  s               5.2      92.2       0.6       1.0       0.0       0.0
14 C  s               0.0       0.1       0.0       0.0       1.1       0.1
15 C  s               0.0       0.0       0.0       0.0       0.1       0.9
17 C  s               0.0       0.0       0.0       0.0       0.7       0.2
18 C  s               0.0       0.0       0.0       0.0      78.8      18.3

                    528       529       530       531       532       533   
                  22.00320  22.01945  22.04486  22.05956  22.06789  22.10299
                   0.00000   0.00000   0.00000   0.00000   0.00000   0.00000
                  --------  --------  --------  --------  --------  --------
 0 C  s              35.3       2.6       0.4       0.1       0.0       0.4
 1 C  s               0.2      14.1       2.7       9.1       0.2      68.6
 6 C  s               0.3       1.4       0.4      45.0      41.0      10.2
 7 C  s              61.2       0.3       0.1       0.9       0.0       0.6
 8 S  s               0.0       0.0       0.2       0.0       0.0       0.0
 9 C  s               0.2       1.6      88.7       2.0       0.6       2.1
10 S  s               0.0       0.0       0.2       0.0       0.0       0.0
14 C  s               0.0       0.0       1.2       0.2       0.7       8.0
15 C  s               1.2      69.1       4.6       0.3      12.8       9.5
17 C  s               0.8      10.4       0.4      41.9      43.9       0.1
18 C  s               0.4       0.1       0.6       0.3       0.5       0.2

                    534       535       536       537       538   
                  22.15412  43.78467  43.81140  43.86131  43.87624
                   0.00000   0.00000   0.00000   0.00000   0.00000
                  --------  --------  --------  --------  --------
 1 C  s               4.7       0.0       0.0       0.0       0.0
 2 O  s               0.0       0.3       7.0      60.4      32.1
 5 O  s               0.0       0.6      90.8       8.2       0.4
 6 C  s               0.7       0.0       0.0       0.0       0.0
 9 C  s               2.8       0.0       0.0       0.0       0.0
13 O  s               0.1       3.5       1.7      30.7      64.0
14 C  s              88.3       0.0       0.0       0.0       0.0
15 C  s               1.2       0.0       0.0       0.0       0.0
16 O  s               0.0      95.5       0.4       0.7       3.3
17 C  s               1.2       0.0       0.0       0.0       0.0
18 C  s               0.6       0.0       0.0       0.0       0.0


                      *****************************
                      * MAYER POPULATION ANALYSIS *
                      *****************************

  NA   - Mulliken gross atomic population
  ZA   - Total nuclear charge
  QA   - Mulliken gross atomic charge
  VA   - Mayer's total valence
  BVA  - Mayer's bonded valence
  FA   - Mayer's free valence

  ATOM       NA         ZA         QA         VA         BVA        FA
  0 C      6.4833     6.0000    -0.4833     3.7829     3.7829    -0.0000
  1 C      6.1498     6.0000    -0.1498     3.6074     3.6074    -0.0000
  2 O      8.2918     8.0000    -0.2918     1.8274     1.8274    -0.0000
  3 P     14.2823    15.0000     0.7177     5.1592     5.1592     0.0000
  4 S     16.5291    16.0000    -0.5291     1.9905     1.9905     0.0000
  5 O      8.3319     8.0000    -0.3319     1.8295     1.8295     0.0000
  6 C      6.1502     6.0000    -0.1502     3.6538     3.6538    -0.0000
  7 C      6.4892     6.0000    -0.4892     3.7515     3.7515     0.0000
  8 S     16.1282    16.0000    -0.1282     2.1993     2.1993    -0.0000
  9 C      6.2463     6.0000    -0.2463     3.6815     3.6815     0.0000
 10 S     16.1797    16.0000    -0.1797     2.1627     2.1627     0.0000
 11 P     14.3121    15.0000     0.6879     5.1748     5.1748    -0.0000
 12 S     16.5205    16.0000    -0.5205     1.9970     1.9970    -0.0000
 13 O      8.2880     8.0000    -0.2880     1.8486     1.8486    -0.0000
 14 C      6.1401     6.0000    -0.1401     3.6017     3.6017    -0.0000
 15 C      6.4787     6.0000    -0.4787     3.7599     3.7599    -0.0000
 16 O      8.3010     8.0000    -0.3010     1.8071     1.8071    -0.0000
 17 C      6.1401     6.0000    -0.1401     3.6723     3.6723    -0.0000
 18 C      6.4807     6.0000    -0.4807     3.8037     3.8037     0.0000
 19 H      0.8277     1.0000     0.1723     0.9571     0.9571    -0.0000
 20 H      0.8323     1.0000     0.1677     0.9576     0.9576    -0.0000
 21 H      0.8300     1.0000     0.1700     0.9573     0.9573     0.0000
 22 H      0.8196     1.0000     0.1804     0.9450     0.9450    -0.0000
 23 H      0.8225     1.0000     0.1775     0.9523     0.9523    -0.0000
 24 H      0.8238     1.0000     0.1762     0.9441     0.9441    -0.0000
 25 H      0.8219     1.0000     0.1781     0.9496     0.9496    -0.0000
 26 H      0.8271     1.0000     0.1729     0.9558     0.9558     0.0000
 27 H      0.8298     1.0000     0.1702     0.9549     0.9549    -0.0000
 28 H      0.8267     1.0000     0.1733     0.9577     0.9577     0.0000
 29 H      0.7658     1.0000     0.2342     0.9427     0.9427     0.0000
 30 H      0.7670     1.0000     0.2330     0.9431     0.9431     0.0000
 31 H      0.8165     1.0000     0.1835     0.9533     0.9533     0.0000
 32 H      0.8253     1.0000     0.1747     0.9437     0.9437     0.0000
 33 H      0.8331     1.0000     0.1669     0.9585     0.9585     0.0000
 34 H      0.8229     1.0000     0.1771     0.9556     0.9556    -0.0000
 35 H      0.8315     1.0000     0.1685     0.9567     0.9567    -0.0000
 36 H      0.8365     1.0000     0.1635     0.9544     0.9544     0.0000
 37 H      0.8217     1.0000     0.1783     0.9460     0.9460    -0.0000
 38 H      0.8306     1.0000     0.1694     0.9578     0.9578     0.0000
 39 H      0.8306     1.0000     0.1694     0.9582     0.9582     0.0000
 40 H      0.8337     1.0000     0.1663     0.9586     0.9586     0.0000

  Mayer bond orders larger than 0.100000
B(  0-C ,  1-C ) :   0.9148 B(  0-C , 19-H ) :   0.9563 B(  0-C , 20-H ) :   0.9585 
B(  0-C , 21-H ) :   0.9714 B(  1-C ,  2-O ) :   0.7758 B(  1-C , 22-H ) :   0.9521 
B(  1-C , 23-H ) :   0.9575 B(  2-O ,  3-P ) :   1.1445 B(  3-P ,  4-S ) :   1.7057 
B(  3-P ,  5-O ) :   1.0807 B(  3-P ,  8-S ) :   1.1047 B(  5-O ,  6-C ) :   0.7997 
B(  6-C ,  7-C ) :   0.9100 B(  6-C , 24-H ) :   0.9483 B(  6-C , 25-H ) :   0.9648 
B(  7-C , 26-H ) :   0.9628 B(  7-C , 27-H ) :   0.9659 B(  7-C , 28-H ) :   0.9531 
B(  8-S ,  9-C ) :   0.9020 B(  9-C , 10-S ) :   0.8984 B(  9-C , 29-H ) :   0.9025 
B(  9-C , 30-H ) :   0.8955 B( 10-S , 11-P ) :   1.0104 B( 11-P , 12-S ) :   1.7764 
B( 11-P , 13-O ) :   1.1958 B( 11-P , 16-O ) :   1.0669 B( 13-O , 14-C ) :   0.8021 
B( 14-C , 15-C ) :   0.9007 B( 14-C , 31-H ) :   0.9454 B( 14-C , 32-H ) :   0.9513 
B( 15-C , 33-H ) :   0.9620 B( 15-C , 34-H ) :   0.9503 B( 15-C , 35-H ) :   0.9643 
B( 16-O , 17-C ) :   0.7699 B( 17-C , 18-C ) :   0.9435 B( 17-C , 36-H ) :   0.9516 
B( 17-C , 37-H ) :   0.9548 B( 18-C , 38-H ) :   0.9585 B( 18-C , 39-H ) :   0.9591 
B( 18-C , 40-H ) :   0.9730 

-------
TIMINGS
-------

Total SCF time: 0 days 0 hours 1 min 44 sec 

Total time                  ....     104.503 sec
Sum of individual times     ....     103.935 sec  ( 99.5%)

SCF preparation             ....       0.913 sec  (  0.9%)
Fock matrix formation       ....      99.680 sec  ( 95.4%)
  Startup                   ....       0.158 sec  (  0.2% of F)
  Split-RI-J                ....      23.540 sec  ( 23.6% of F)
  XC integration            ....      44.265 sec  ( 44.4% of F)
    Basis function eval.    ....       6.910 sec  ( 15.6% of XC)
    Density eval.           ....      16.225 sec  ( 36.7% of XC)
    XC-Functional eval.     ....       3.113 sec  (  7.0% of XC)
    XC-Potential eval.      ....      16.668 sec  ( 37.7% of XC)
  CPCM terms                ....      29.958 sec  ( 30.1% of F)
Diagonalization             ....       0.000 sec  (  0.0%)
Density matrix formation    ....       0.807 sec  (  0.8%)
Total Energy calculation    ....       0.160 sec  (  0.2%)
Population analysis         ....       0.504 sec  (  0.5%)
Orbital Transformation      ....       0.241 sec  (  0.2%)
Orbital Orthonormalization  ....       0.000 sec  (  0.0%)
DIIS solution               ....       1.430 sec  (  1.4%)
  MO trafo                  ....       0.000 sec  (  0.0 % of DIIS)
  Orb grad                  ....       0.000 sec  (  0.0 % of DIIS)
  Energy W gradient         ....       0.000 sec  (  0.0 % of DIIS)
  DIIS error                ....       0.108 sec  (  7.6 % of DIIS)
  DIIS work                 ....       1.177 sec  ( 82.3 % of DIIS)
  Form Q                    ....       0.000 sec  (  0.0 % of DIIS)
  Form QpQm                 ....       0.000 sec  (  0.0 % of DIIS)
  Exp/Cayley                ....       0.000 sec  (  0.0 % of DIIS)
  Orb update                ....       0.000 sec  (  0.0 % of DIIS)
  Wake-sleep                ....       0.027 sec  (  1.9 % of DIIS)
SOSCF solution              ....       0.201 sec  (  0.2%)
  MO trafo                  ....       0.150 sec  ( 74.7 % of SOSCF)
  Orb grad                  ....       0.004 sec  (  1.9 % of SOSCF)
  Rot update                ....       0.000 sec  (  0.1 % of SOSCF)
  Step                      ....       0.046 sec  ( 23.1 % of SOSCF)
Finished LeanSCF after 104.7 sec

Maximum memory used throughout the entire LEANSCF-calculation: 130.7 MB


-------------------------------------------------------------------------------
                          DFT DISPERSION CORRECTION                            
                                                                               
                                DFTD4 V3.4.0                                   
-------------------------------------------------------------------------------
The R2SCAN3C composite method is recognized
Using three-body term ABC
Active option DFTDOPT                   ...         5   

-------------------------   ----------------
Dispersion correction           -0.021657485
-------------------------   ----------------

------------------   -----------------
gCP correction             0.046616762
------------------   -----------------

-------------------------   --------------------
FINAL SINGLE POINT ENERGY     -2932.470522899662
-------------------------   --------------------


------------------------------------------------------------------------------
                              ORCA PROPERTY CALCULATIONS
------------------------------------------------------------------------------

GBWName                                 ... sp_solv.gbw
Number of atoms                         ...     41
Number of basis functions               ...    539
Max core memory                         ...   1024 MB

Electric properties:
Dipole moment                           ... YES
Quadrupole moment                       ...  NO
Static polarizability (Dipole/Dipole)   ...  NO
Static polarizability (Dipole/Quad.)    ...  NO
Static polarizability (Quad./Quad.)     ...  NO
Static polarizability (Velocity)        ...  NO

Atomic electric properties:
Dipole moment                           ...  NO
Quadrupole moment                       ...  NO
Static polarizability                   ...  NO

Choice of electric origin               ... Center of mass
Position of electric origin             ...     0.000002    -0.000001     0.000005

General magnetic properties:
Magnetizability                         ...  NO

EPR properties:
g-Tensor (aka g-matrix)                 ...  NO
Zero-Field splitting spin-orbit         ...  NO
Zero-field splitting spin-spin          ...  NO
Hyperfine couplings                     ...  NO (   0 nuclei)
Quadrupole couplings                    ...  NO (   0 nuclei)
Contact density                         ...  NO (   0 nuclei)

NMR properties:
Chemical shifts                         ...  NO (   0 nuclei)
Spin-rotation constants                 ...  NO (   0 nuclei)
Spin-spin couplings                     ...  NO (   0 nuclei,    0 pairs)

Choice of magnetic origin               ... GIAO
Position of magnetic origin             ...     0.000000     0.000000     0.000000

Properties with geometric perturbations:
SCF Hessian                             ...  NO
IR spectrum                             ...  NO
VCD spectrum                            ...  NO
X-ray spectroscopy properties:
SCF XES/XAS/RIXS spectra                ...  NO


-------------
DIPOLE MOMENT
-------------

Method             : SCF
Type of density    : Electron Density
Multiplicity       :   1
Irrep              :   0
Energy             : -2932.4954821767873909 Eh
Relativity type    : 
Basis              : AO
                                X                 Y                 Z
Electronic contribution:     -1.659812376     -10.285318130      -6.010146654
Nuclear contribution   :      2.383057390      12.090856844       7.562276908
                        -----------------------------------------
Total Dipole Moment    :      0.723245014       1.805538714       1.552130254
                        -----------------------------------------
Magnitude (a.u.)       :      2.488405458
Magnitude (Debye)      :      6.325024017



--------------------
Rotational spectrum 
--------------------
 
Rotational constants in cm-1:             0.013663             0.004710             0.004273 
Rotational constants in MHz :           409.620400           141.216664           128.098529 

Dipole components along the rotational axes: 
x,y,z [a.u.] :     0.872991    -2.328594     0.087746 
x,y,z [Debye]:     2.218967    -5.918815     0.223033 

 

Dipole moment calculation done in   0.1 sec 

Maximum memory used throughout the entire PROP-calculation: 51.3 MB

--------------------------------
SUGGESTED CITATIONS FOR THIS RUN
--------------------------------

Below you find a list of papers that are relevant to this ORCA run
We neither can nor want to force you to cite these papers, but we appreciate if you do
You receive ORCA, which is the product of decades of hard work by many enthusiastic individuals, for free
The only thing we kindly ask in return is that you cite our papers,
We deeply appreciate it, if you show your appreciation for ORCA by not just citing the generic ORCA reference.

Please note that relegating all ORCA citations to the supporting information does *not* help us.
SI sections are not indexed - citations you put there will not count into any citation statistics
But we need these citations in order to attract the funding resources that allow us to do what we are doing

Therefore, if you are a happy ORCA user, please consider citing a few of the papers listed below in the main body of your paper

In addition to the list printed below, the program has created the file sp_solv.bibtex that contains the list in bibtex format
You can import this file easily into all common literature databanks and citation aid programs


List of essential papers. We consider these as the minimum necessary citations

  1. Neese,F.
     Software update: the ORCA program system, version 5.0
     WIRES Comput. Molec. Sci., 2022 12(1)e1606
     doi.org/10.1002/wcms.1606
  2. Grimme,S.; Hansen,A.; Ehlert,S.; Mewes,J.
     r2SCAN-3c: A 'Swiss army knife' composite electronic-structure method
     J. Chem. Phys., 2021 154 064103
     doi.org/10.1063/5.0040021

List of papers to cite with high priority. The work reported in these papers was absolutely
necessary for this run to complete.
Our perspective: the developers of density functionals and basis sets usually get cited in chemistry papers
Good! But without the algorithms to do something with them, the functionals or basis sets would not do anything.
Hence, in our opinion, the algorithm design and method developments papers are equally worthy of getting cited

  1. Neese,F.
     An improvement of the resolution of the identity approximation for the formation of the Coulomb matrix
     J. Comp. Chem., 2003 24(14)1740-1747
     doi.org/10.1002/jcc.10318
  2. Garcia-Rates,M.; Neese,F.
     Effect of the Solute Cavity on the Solvation Energy and its Derivatives within the Framework of the Gaussian Charge Scheme
     J. Comput. Chem., 2020 41 922-939
     doi.org/10.1002/jcc.26139
  3. Neese,F.
     The SHARK Integral Generation and Digestion System
     J. Comp. Chem., 2022  1-16
     doi.org/10.1002/jcc.26942
  4. Lehtola,S.; Steigemann,C.; Oliveira,M.; Marques,M.
     Recent developments in Libxc - A comprehensive library of functionals for density functional theory
     Software X, 2018 7 
     doi.org/10.1016/j.softx.2017.11.002
  5. Caldeweyher,E.; Bannwarth,C.; Grimme,S.
     Extension of the D3 dispersion coefficient model
     J. Chem. Phys., 2017 147 034112-XXXX
     doi.org/10.1063/1.4993215
  6. Caldeweyher,E.; Ehlert,S.; Hansen,A.; Neugebauer,H.; Spicher,S.; Bannwarth,C.; Grimme,S.
     A generally applicable atomic-charge dependent London dispersion correction
     J. Chem. Phys., 2019 150 154122-XXXX
     doi.org/10.1063/1.5090222
  7. Caldeweyher,E.; Mewes,J.; Ehlert,S.; Grimme,S.
     Extension and evaluation of the D4 London-dispersion model for periodic systems
     Phys. Chem. Chem. Phys., 2020 22(16)8499-8512
     doi.org/10.1039/D0CP00502A

List of suggested additional citations. These are papers that are important in the 'surrounding' of 
of this run, or papers that preceded the highly important papers. If you like your results we are grateful for a citation.

  1. Neese,F.
     The ORCA program system
     WIRES Comput. Molec. Sci., 2012 2(1)73-78
     doi.org/10.1002/wcms.81
  2. Neese,F.
     Software update: the ORCA program system, version 4.0
     WIRES Comput. Molec. Sci., 2018 8(1)1-6
     doi.org/10.1002/wcms.1327
  3. Neese,F.; Wennmohs,F.; Becker,U.; Riplinger,C.
     The ORCA quantum chemistry program package
     J. Chem. Phys., 2020 152 Art. No. L224108
     doi.org/10.1063/5.0004608

List of optional additional citations

  1. Neese,F.
     Approximate second-order SCF convergence for spin unrestricted wavefunctions
     Chem. Phys. Lett., 2000 325(1-3)93-98
     doi.org/10.1016/s0009-2614(00)00662-x

Timings for individual modules:

Sum of individual times          ...      108.848 sec (=   1.814 min)
Startup calculation              ...        3.189 sec (=   0.053 min)   2.9 %
SCF iterations                   ...      105.436 sec (=   1.757 min)  96.9 %
Property calculations            ...        0.223 sec (=   0.004 min)   0.2 %
                             ****ORCA TERMINATED NORMALLY****
TOTAL RUN TIME: 0 days 0 hours 1 minutes 49 seconds 650 msec
