      -----------------------------------------------------------      
     |                   =====================                   |     
     |                           x T B                           |     
     |                   =====================                   |     
     |                         S. Grimme                         |     
     |          Mulliken Center for Theoretical Chemistry        |     
     |                    University of Bonn                     |     
      -----------------------------------------------------------      

   * xtb version 6.7.1 (edcfbbe) compiled by 'albert@albert-system' on 2024-07-22

   xtb is free software: you can redistribute it and/or modify it under
   the terms of the GNU Lesser General Public License as published by
   the Free Software Foundation, either version 3 of the License, or
   (at your option) any later version.
   
   xtb is distributed in the hope that it will be useful,
   but WITHOUT ANY WARRANTY; without even the implied warranty of
   MERCHANTABILITY or FITNESS FOR A PARTICULAR PURPOSE.  See the
   GNU Lesser General Public License for more details.
   
   Cite this work as:
   * C. Bannwarth, E. Caldeweyher, S. Ehlert, A. Hansen, P. Pracht,
     J. Seibert, S. Spicher, S. Grimme, WIREs Comput. Mol. Sci., 2020, 11,
     e01493. DOI: 10.1002/wcms.1493
   
   for GFN2-xTB:
   * C. Bannwarth, S. Ehlert and S. Grimme., J. Chem. Theory Comput., 2019,
     15, 1652-1671. DOI: 10.1021/acs.jctc.8b01176
   for GFN1-xTB:
   * S. Grimme, C. Bannwarth, P. Shushkov, J. Chem. Theory Comput., 2017,
     13, 1989-2009. DOI: 10.1021/acs.jctc.7b00118
   for GFN0-xTB:
   * P. Pracht, E. Caldeweyher, S. Ehlert, S. Grimme, ChemRxiv, 2019, preprint.
     DOI: 10.26434/chemrxiv.8326202.v1
   for GFN-FF:
   * S. Spicher and S. Grimme, Angew. Chem. Int. Ed., 2020, 59, 15665-15673.
     DOI: 10.1002/anie.202004239
   
   for ALPB and GBSA implicit solvation:
   * S. Ehlert, M. Stahn, S. Spicher, S. Grimme, J. Chem. Theory Comput.,
     2021, 17, 4250-4261. DOI: 10.1021/acs.jctc.1c00471
   
   for ddCOSMO and CPCM-X implicit solvation:
   * M. Stahn, S. Ehlert, S. Grimme, J. Phys. Chem. A,
     2023, XX, XXXX-XXXX. DOI: 10.1021/acs.jpca.3c04382
   
   for DFT-D4:
   * E. Caldeweyher, C. Bannwarth and S. Grimme, J. Chem. Phys., 2017,
     147, 034112. DOI: 10.1063/1.4993215
   * E. Caldeweyher, S. Ehlert, A. Hansen, H. Neugebauer, S. Spicher,
     C. Bannwarth and S. Grimme, J. Chem. Phys., 2019, 150, 154122.
     DOI: 10.1063/1.5090222
   * E. Caldeweyher, J.-M. Mewes, S. Ehlert and S. Grimme, Phys. Chem. Chem. Phys.
     2020, 22, 8499-8512. DOI: 10.1039/D0CP00502A
   
   for sTDA-xTB:
   * S. Grimme and C. Bannwarth, J. Chem. Phys., 2016, 145, 054103.
     DOI: 10.1063/1.4959605
   
   in the mass-spec context:
   * V. Asgeirsson, C. Bauer and S. Grimme, Chem. Sci., 2017, 8, 4879.
     DOI: 10.1039/c7sc00601b
   * J. Koopman and S. Grimme, ACS Omega 2019, 4, 12, 15120-15133.
     DOI: 10.1021/acsomega.9b02011
   
   for metadynamics refer to:
   * S. Grimme, J. Chem. Theory Comput., 2019, 155, 2847-2862
     DOI: 10.1021/acs.jctc.9b00143
   
   for SPH calculations refer to:
   * S. Spicher and S. Grimme, J. Chem. Theory Comput., 2021, 17, 1701-1714
     DOI: 10.1021/acs.jctc.0c01306
   
   for ONIOM refer to:
   * C. Plett, A. Katbashev, S. Ehlert, S. Grimme, M. Bursch,
     Phys. Chem. Chem. Phys., 2023, 25, 17860-17868. DOI: 10.1039/D3CP02178E
   
   for DIPRO refer to:
   * J. Kohn, N. Gildemeister, S. Grimme, D. Fazzi, A. Hansen,
     J. Chem. Phys., 2023, just accepted.
   
   for PTB refer to:
   * S. Grimme, M. Mueller, A. Hansen, J. Chem. Phys., 2023, 158, 124111.
     DOI: 10.1063/5.0137838
   
   with help from (in alphabetical order)
   P. Atkinson, C. Bannwarth, F. Bohle, G. Brandenburg, E. Caldeweyher
   M. Checinski, S. Dohm, S. Ehlert, S. Ehrlich, I. Gerasimov, C. Hölzer
   A. Katbashev, J. Kohn, J. Koopman, C. Lavigne, S. Lehtola, F. März, M. Müller,
   F. Musil, H. Neugebauer, J. Pisarek, C. Plett, P. Pracht, F. Pultar,
   J. Seibert, P. Shushkov, S. Spicher, M. Stahn, M. Steiner, T. Strunk,
   J. Stückrath, T. Rose, and J. Unsleber
   
 * started run on 2025/04/09 at 05:21:04.479     
   ID    Z sym.   atoms
    1    6 C      1, 2, 7, 8, 10, 15, 16, 18, 19
    2    8 O      3, 6, 14, 17
    3   15 P      4, 12
    4   16 S      5, 9, 11, 13
    5    1 H      20-41

           -------------------------------------------------
          |                Calculation Setup                |
           -------------------------------------------------

          program call               : /srv/scratch/z5358697/.xtb/bin/xtb solv.coord --gfn2 --sp --chrg 0 --norestart --parallel 1 --alpb water reference -I xtb_sp-xcontrol-inp
          hostname                   : k163
          coordinate file            : solv.coord
          omp threads                :                     1


           -------------------------------------------------
          |                 G F N 2 - x T B                 |
           -------------------------------------------------

        Reference                      10.1021/acs.jctc.8b01176
      * Hamiltonian:
        H0-scaling (s, p, d)           1.850000    2.230000    2.230000
        zeta-weighting                 0.500000
      * Dispersion:
        s8                             2.700000
        a1                             0.520000
        a2                             5.000000
        s9                             5.000000
      * Repulsion:
        kExp                           1.500000    1.000000
        rExp                           1.000000
      * Coulomb:
        alpha                          2.000000
        third order                    shell-resolved
        anisotropic                    true
        a3                             3.000000
        a5                             4.000000
        cn-shift                       1.200000
        cn-exp                         4.000000
        max-rad                        5.000000

      * Solvation model:               ALPB
        Solvent                        water
        Parameter file                 internal GFN2-xTB/ALPB
        Dielectric constant                8.0200E+01
        Reference state                gsolv=reference [X=1]
        Free energy shift                  2.8945E-03 Eh       1.8164E+00 kcal/mol
        Temperature                        2.9815E+02 K
        Density                            1.0000E+00 kg/L
        Solvent mass                       1.8000E+01 g/mol
        Interaction kernel             P16
        Born radius scaling (c1)           1.4744E+00
        Born radii integrator          GBOBC
        Born offset                        0.0000E+00 a0       0.0000E+00 AA
        H-bond correction              true
        Ion screening                  false
        Surface tension                    1.0000E-05 Eh       1.5569E+01 dyn/cm
        Grid points                               974 per atom

          ...................................................
          :                      SETUP                      :
          :.................................................:
          :  # basis functions                 134          :
          :  # atomic orbitals                 128          :
          :  # shells                           66          :
          :  # electrons                       116          :
          :  max. iterations                   250          :
          :  Hamiltonian                  GFN2-xTB          :
          :  restarted?                      false          :
          :  GBSA solvation                   true          :
          :  PC potential                    false          :
          :  electronic temp.          300.0000000     K    :
          :  accuracy                    1.0000000          :
          :  -> integral cutoff          0.2500000E+02      :
          :  -> integral neglect         0.1000000E-07      :
          :  -> SCF convergence          0.1000000E-05 Eh   :
          :  -> wf. convergence          0.1000000E-03 e    :
          :  Broyden damping             0.4000000          :
          :  net charge                          0          :
          :  unpaired electrons                  0          :
          ...................................................

 iter      E             dE          RMSdq      gap      omega  full diag
   1    -65.4453482 -0.654453E+02  0.643E+00    4.13       0.0  T
   2    -65.5641333 -0.118785E+00  0.371E+00    3.58       1.0  T
   3    -65.5838049 -0.196716E-01  0.107E+00    3.05       1.0  T
   4    -65.5866365 -0.283160E-02  0.506E-01    2.99       1.0  T
   5    -65.5872790 -0.642474E-03  0.266E-01    3.04       1.0  T
   6    -65.5874610 -0.182015E-03  0.129E-01    3.04       1.0  T
   7    -65.5875220 -0.609524E-04  0.458E-02    3.06       1.0  T
   8    -65.5875263 -0.429863E-05  0.188E-02    3.06       1.0  T
   9    -65.5875273 -0.102817E-05  0.584E-03    3.06       2.7  T
  10    -65.5875273 -0.461356E-07  0.310E-03    3.06       5.0  T
  11    -65.5875274 -0.441155E-07  0.105E-03    3.06      14.9  T
  12    -65.5875274 -0.193702E-08  0.508E-04    3.06      30.8  T
  13    -65.5875274 -0.785420E-09  0.149E-04    3.06     104.9  T

   *** convergence criteria satisfied after 13 iterations ***

         #    Occupation            Energy/Eh            Energy/eV
      -------------------------------------------------------------
         1        2.0000           -0.7677303             -20.8910
       ...           ...                  ...                  ...
        52        2.0000           -0.4432188             -12.0606
        53        2.0000           -0.4231674             -11.5150
        54        2.0000           -0.4147398             -11.2856
        55        2.0000           -0.3963319             -10.7847
        56        2.0000           -0.3943157             -10.7299
        57        2.0000           -0.3931417             -10.6979
        58        2.0000           -0.3907461             -10.6327 (HOMO)
        59                         -0.2783296              -7.5737 (LUMO)
        60                         -0.2558771              -6.9628
        61                         -0.2182330              -5.9384
        62                         -0.1874410              -5.1005
        63                         -0.1784438              -4.8557
       ...                                ...                  ...
       128                          1.2726737              34.6312
      -------------------------------------------------------------
                  HL-Gap            0.1124165 Eh            3.0590 eV
             Fermi-level           -0.3345378 Eh           -9.1032 eV

 SCC (total)                   0 d,  0 h,  0 min,  0.064 sec
 SCC setup                      ...        0 min,  0.003 sec (  3.926%)
 Dispersion                     ...        0 min,  0.000 sec (  0.467%)
 classical contributions        ...        0 min,  0.000 sec (  0.088%)
 integral evaluation            ...        0 min,  0.013 sec ( 19.961%)
 iterations                     ...        0 min,  0.027 sec ( 41.423%)
 molecular gradient             ...        0 min,  0.022 sec ( 33.800%)
 printout                       ...        0 min,  0.000 sec (  0.313%)

         :::::::::::::::::::::::::::::::::::::::::::::::::::::
         ::                     SUMMARY                     ::
         :::::::::::::::::::::::::::::::::::::::::::::::::::::
         :: total energy             -65.024978310168 Eh    ::
         :: total w/o Gsasa/hb       -65.028596856033 Eh    ::
         :: gradient norm              0.000053833991 Eh/a0 ::
         :: HOMO-LUMO gap              3.059007316889 eV    ::
         ::.................................................::
         :: SCC energy               -65.586422459659 Eh    ::
         :: -> isotropic ES            0.122681653234 Eh    ::
         :: -> anisotropic ES         -0.014878936108 Eh    ::
         :: -> anisotropic XC          0.030412401310 Eh    ::
         :: -> dispersion             -0.052381163483 Eh    ::
         :: -> Gsolv                  -0.019768190803 Eh    ::
         ::    -> Gelec               -0.023386736669 Eh    ::
         ::    -> Gsasa                0.004575753532 Eh    ::
         ::    -> Ghb                 -0.003851756827 Eh    ::
         ::    -> Gshift               0.002894549160 Eh    ::
         :: repulsion energy           0.561444149491 Eh    ::
         :: add. restraining           0.000000000000 Eh    ::
         :: total charge              -0.000000000000 e     ::
         :::::::::::::::::::::::::::::::::::::::::::::::::::::

           -------------------------------------------------
          |                Property Printout                |
           -------------------------------------------------

    * Orbital Energies and Occupations

         #    Occupation            Energy/Eh            Energy/eV
      -------------------------------------------------------------
         1        2.0000           -0.7677303             -20.8910
       ...           ...                  ...                  ...
        46        2.0000           -0.4711656             -12.8211
        47        2.0000           -0.4641841             -12.6311
        48        2.0000           -0.4604866             -12.5305
        49        2.0000           -0.4529355             -12.3250
        50        2.0000           -0.4517807             -12.2936
        51        2.0000           -0.4485344             -12.2052
        52        2.0000           -0.4432188             -12.0606
        53        2.0000           -0.4231674             -11.5150
        54        2.0000           -0.4147398             -11.2856
        55        2.0000           -0.3963319             -10.7847
        56        2.0000           -0.3943157             -10.7299
        57        2.0000           -0.3931417             -10.6979
        58        2.0000           -0.3907461             -10.6327 (HOMO)
        59                         -0.2783296              -7.5737 (LUMO)
        60                         -0.2558771              -6.9628
        61                         -0.2182330              -5.9384
        62                         -0.1874410              -5.1005
        63                         -0.1784438              -4.8557
        64                         -0.1766067              -4.8057
        65                         -0.1696148              -4.6155
        66                         -0.1569968              -4.2721
        67                         -0.1401744              -3.8143
        68                         -0.1218735              -3.3163
        69                         -0.0553565              -1.5063
       ...                                ...                  ...
       128                          1.2726737              34.6312
      -------------------------------------------------------------
                  HL-Gap            0.1124165 Eh            3.0590 eV
             Fermi-level           -0.3345378 Eh           -9.1032 eV

     #   Z          covCN         q      C6AA      α(0)
     1   6 C        3.751    -0.127    23.007     6.840
     2   6 C        3.823     0.068    19.431     6.273
     3   8 O        1.655    -0.258    18.291     5.773
     4  15 P        3.822     0.368   144.924    21.625
     5  16 S        0.926    -0.454   159.193    21.341
     6   8 O        1.654    -0.256    18.262     5.769
     7   6 C        3.853     0.081    19.197     6.232
     8   6 C        3.751    -0.124    22.948     6.832
     9  16 S        2.022    -0.146   147.204    20.420
    10   6 C        3.834     0.043    19.829     6.335
    11  16 S        2.025    -0.141   146.989    20.405
    12  15 P        3.876     0.376   144.600    21.601
    13  16 S        0.926    -0.473   160.099    21.401
    14   8 O        1.655    -0.260    18.326     5.779
    15   6 C        3.861     0.083    19.168     6.226
    16   6 C        3.751    -0.134    23.140     6.860
    17   8 O        1.654    -0.251    18.172     5.755
    18   6 C        3.868     0.080    19.212     6.233
    19   6 C        3.751    -0.132    23.091     6.853
    20   1 H        0.925     0.087     1.910     2.161
    21   1 H        0.925     0.056     2.250     2.346
    22   1 H        0.925     0.065     2.138     2.287
    23   1 H        0.924     0.100     1.782     2.088
    24   1 H        0.924     0.077     2.011     2.218
    25   1 H        0.924     0.067     2.116     2.275
    26   1 H        0.924     0.078     2.001     2.212
    27   1 H        0.925     0.085     1.923     2.169
    28   1 H        0.925     0.071     2.075     2.252
    29   1 H        0.925     0.060     2.200     2.320
    30   1 H        0.925     0.096     1.821     2.110
    31   1 H        0.925     0.093     1.849     2.126
    32   1 H        0.924     0.064     2.152     2.294
    33   1 H        0.924     0.059     2.212     2.326
    34   1 H        0.925     0.084     1.939     2.178
    35   1 H        0.925     0.071     2.076     2.253
    36   1 H        0.925     0.076     2.016     2.220
    37   1 H        0.924     0.079     1.989     2.206
    38   1 H        0.924     0.061     2.182     2.310
    39   1 H        0.925     0.066     2.134     2.285
    40   1 H        0.925     0.073     2.052     2.240
    41   1 H        0.925     0.088     1.894     2.152

 Mol. C6AA /au·bohr⁶  :      26396.928679
 Mol. C8AA /au·bohr⁸  :     862598.882096
 Mol. α(0) /au        :        257.580137


Wiberg/Mayer (AO) data.
largest (>0.10) Wiberg bond orders for each atom

 ---------------------------------------------------------------------------
     #   Z sym  total        # sym  WBO       # sym  WBO       # sym  WBO
 ---------------------------------------------------------------------------
     1   6 C    3.987 --     2 C    1.024    22 H    0.982    20 H    0.975
                            21 H    0.974
     2   6 C    3.884 --     1 C    1.024    24 H    0.967    23 H    0.962
                             3 O    0.881
     3   8 O    2.412 --     4 P    1.334     2 C    0.881
     4  15 P    5.313 --     5 S    1.536     6 O    1.355     3 O    1.334
                             9 S    0.947
     5  16 S    1.859 --     4 P    1.536     9 S    0.137
     6   8 O    2.410 --     4 P    1.355     7 C    0.865
     7   6 C    3.886 --     8 C    1.021    26 H    0.970    25 H    0.962
                             6 O    0.865
     8   6 C    3.984 --     7 C    1.021    28 H    0.982    29 H    0.981
                            27 H    0.974
     9  16 S    2.281 --    10 C    0.991     4 P    0.947     5 S    0.137
    10   6 C    3.953 --     9 S    0.991    11 S    0.985    31 H    0.952
                            30 H    0.952
    11  16 S    2.296 --    12 P    0.998    10 C    0.985    13 S    0.132
    12  15 P    5.299 --    13 S    1.505    17 O    1.338    14 O    1.326
                            11 S    0.998
    13  16 S    1.842 --    12 P    1.505    11 S    0.132
    14   8 O    2.406 --    12 P    1.326    15 C    0.884
    15   6 C    3.891 --    16 C    1.018    32 H    0.972    33 H    0.966
                            14 O    0.884
    16   6 C    3.982 --    15 C    1.018    35 H    0.983    36 H    0.982
                            34 H    0.976
    17   8 O    2.404 --    12 P    1.338    18 C    0.867
    18   6 C    3.884 --    19 C    1.021    37 H    0.970    38 H    0.962
                            17 O    0.867
    19   6 C    3.982 --    18 C    1.021    39 H    0.982    40 H    0.981
                            41 H    0.973
    20   1 H    0.992 --     1 C    0.975
    21   1 H    0.997 --     1 C    0.974
    22   1 H    0.996 --     1 C    0.982
    23   1 H    0.990 --     2 C    0.962
    24   1 H    0.994 --     2 C    0.967
    25   1 H    0.995 --     7 C    0.962
    26   1 H    0.994 --     7 C    0.970
    27   1 H    0.991 --     8 C    0.974
    28   1 H    0.995 --     8 C    0.982
    29   1 H    0.996 --     8 C    0.981
    30   1 H    0.991 --    10 C    0.952
    31   1 H    0.991 --    10 C    0.952
    32   1 H    0.996 --    15 C    0.972
    33   1 H    0.997 --    15 C    0.966
    34   1 H    0.992 --    16 C    0.976
    35   1 H    0.995 --    16 C    0.983
    36   1 H    0.994 --    16 C    0.982
    37   1 H    0.994 --    18 C    0.970
    38   1 H    0.996 --    18 C    0.962
    39   1 H    0.996 --    19 C    0.982
    40   1 H    0.995 --    19 C    0.981
    41   1 H    0.991 --    19 C    0.973
 ---------------------------------------------------------------------------

Topologies differ in total number of bonds
Writing topology from bond orders to xtbtopo.mol

molecular dipole:
                 x           y           z       tot (Debye)
 q only:       -1.064      -2.877       1.400
   full:       -1.009      -2.747       1.763       8.684
molecular quadrupole (traceless):
                xx          xy          yy          xz          yz          zz
 q only:       -7.572     -26.647      10.268     -26.715       3.457      -2.696
  q+dip:       -6.666     -27.452       7.972     -22.144       1.462      -1.307
   full:       -6.249     -27.562       9.022     -23.397       2.161      -2.772


           -------------------------------------------------
          | TOTAL ENERGY              -65.024978310168 Eh   |
          | GRADIENT NORM               0.000053833991 Eh/α |
          | HOMO-LUMO GAP               3.059007316889 eV   |
           -------------------------------------------------

------------------------------------------------------------------------
 * finished run on 2025/04/09 at 05:21:04.602     
------------------------------------------------------------------------
 total:
 * wall-time:     0 d,  0 h,  0 min,  0.122 sec
 *  cpu-time:     0 d,  0 h,  0 min,  0.073 sec
 * ratio c/w:     0.598 speedup
 SCF:
 * wall-time:     0 d,  0 h,  0 min,  0.065 sec
 *  cpu-time:     0 d,  0 h,  0 min,  0.060 sec
 * ratio c/w:     0.923 speedup

