      -----------------------------------------------------------      
     |                   =====================                   |     
     |                           x T B                           |     
     |                   =====================                   |     
     |                         S. Grimme                         |     
     |          Mulliken Center for Theoretical Chemistry        |     
     |                    University of Bonn                     |     
      -----------------------------------------------------------      

   * xtb version 6.7.1 (edcfbbe) compiled by 'albert@albert-system' on 2024-07-22

   xtb is free software: you can redistribute it and/or modify it under
   the terms of the GNU Lesser General Public License as published by
   the Free Software Foundation, either version 3 of the License, or
   (at your option) any later version.
   
   xtb is distributed in the hope that it will be useful,
   but WITHOUT ANY WARRANTY; without even the implied warranty of
   MERCHANTABILITY or FITNESS FOR A PARTICULAR PURPOSE.  See the
   GNU Lesser General Public License for more details.
   
   Cite this work as:
   * C. Bannwarth, E. Caldeweyher, S. Ehlert, A. Hansen, P. Pracht,
     J. Seibert, S. Spicher, S. Grimme, WIREs Comput. Mol. Sci., 2020, 11,
     e01493. DOI: 10.1002/wcms.1493
   
   for GFN2-xTB:
   * C. Bannwarth, S. Ehlert and S. Grimme., J. Chem. Theory Comput., 2019,
     15, 1652-1671. DOI: 10.1021/acs.jctc.8b01176
   for GFN1-xTB:
   * S. Grimme, C. Bannwarth, P. Shushkov, J. Chem. Theory Comput., 2017,
     13, 1989-2009. DOI: 10.1021/acs.jctc.7b00118
   for GFN0-xTB:
   * P. Pracht, E. Caldeweyher, S. Ehlert, S. Grimme, ChemRxiv, 2019, preprint.
     DOI: 10.26434/chemrxiv.8326202.v1
   for GFN-FF:
   * S. Spicher and S. Grimme, Angew. Chem. Int. Ed., 2020, 59, 15665-15673.
     DOI: 10.1002/anie.202004239
   
   for ALPB and GBSA implicit solvation:
   * S. Ehlert, M. Stahn, S. Spicher, S. Grimme, J. Chem. Theory Comput.,
     2021, 17, 4250-4261. DOI: 10.1021/acs.jctc.1c00471
   
   for ddCOSMO and CPCM-X implicit solvation:
   * M. Stahn, S. Ehlert, S. Grimme, J. Phys. Chem. A,
     2023, XX, XXXX-XXXX. DOI: 10.1021/acs.jpca.3c04382
   
   for DFT-D4:
   * E. Caldeweyher, C. Bannwarth and S. Grimme, J. Chem. Phys., 2017,
     147, 034112. DOI: 10.1063/1.4993215
   * E. Caldeweyher, S. Ehlert, A. Hansen, H. Neugebauer, S. Spicher,
     C. Bannwarth and S. Grimme, J. Chem. Phys., 2019, 150, 154122.
     DOI: 10.1063/1.5090222
   * E. Caldeweyher, J.-M. Mewes, S. Ehlert and S. Grimme, Phys. Chem. Chem. Phys.
     2020, 22, 8499-8512. DOI: 10.1039/D0CP00502A
   
   for sTDA-xTB:
   * S. Grimme and C. Bannwarth, J. Chem. Phys., 2016, 145, 054103.
     DOI: 10.1063/1.4959605
   
   in the mass-spec context:
   * V. Asgeirsson, C. Bauer and S. Grimme, Chem. Sci., 2017, 8, 4879.
     DOI: 10.1039/c7sc00601b
   * J. Koopman and S. Grimme, ACS Omega 2019, 4, 12, 15120-15133.
     DOI: 10.1021/acsomega.9b02011
   
   for metadynamics refer to:
   * S. Grimme, J. Chem. Theory Comput., 2019, 155, 2847-2862
     DOI: 10.1021/acs.jctc.9b00143
   
   for SPH calculations refer to:
   * S. Spicher and S. Grimme, J. Chem. Theory Comput., 2021, 17, 1701-1714
     DOI: 10.1021/acs.jctc.0c01306
   
   for ONIOM refer to:
   * C. Plett, A. Katbashev, S. Ehlert, S. Grimme, M. Bursch,
     Phys. Chem. Chem. Phys., 2023, 25, 17860-17868. DOI: 10.1039/D3CP02178E
   
   for DIPRO refer to:
   * J. Kohn, N. Gildemeister, S. Grimme, D. Fazzi, A. Hansen,
     J. Chem. Phys., 2023, just accepted.
   
   for PTB refer to:
   * S. Grimme, M. Mueller, A. Hansen, J. Chem. Phys., 2023, 158, 124111.
     DOI: 10.1063/5.0137838
   
   with help from (in alphabetical order)
   P. Atkinson, C. Bannwarth, F. Bohle, G. Brandenburg, E. Caldeweyher
   M. Checinski, S. Dohm, S. Ehlert, S. Ehrlich, I. Gerasimov, C. Hölzer
   A. Katbashev, J. Kohn, J. Koopman, C. Lavigne, S. Lehtola, F. März, M. Müller,
   F. Musil, H. Neugebauer, J. Pisarek, C. Plett, P. Pracht, F. Pultar,
   J. Seibert, P. Shushkov, S. Spicher, M. Stahn, M. Steiner, T. Strunk,
   J. Stückrath, T. Rose, and J. Unsleber
   
 * started run on 2025/04/03 at 20:38:38.818     
   ID    Z sym.   atoms
    1    6 C      1-10
    2    7 N      11
    3    1 H      12-20

           -------------------------------------------------
          |                Calculation Setup                |
           -------------------------------------------------

          program call               : /srv/scratch/z5358697/.xtb/bin/xtb xtb_rrho.coord --gfn2 --ohess vtight --chrg 0 --enso --norestart -I rrho-xcontrol-inp --parallel 1 --alpb water
          hostname                   : k146
          coordinate file            : xtb_rrho.coord
          omp threads                :                     1


           -------------------------------------------------
          |                 G F N 2 - x T B                 |
           -------------------------------------------------

        Reference                      10.1021/acs.jctc.8b01176
      * Hamiltonian:
        H0-scaling (s, p, d)           1.850000    2.230000    2.230000
        zeta-weighting                 0.500000
      * Dispersion:
        s8                             2.700000
        a1                             0.520000
        a2                             5.000000
        s9                             5.000000
      * Repulsion:
        kExp                           1.500000    1.000000
        rExp                           1.000000
      * Coulomb:
        alpha                          2.000000
        third order                    shell-resolved
        anisotropic                    true
        a3                             3.000000
        a5                             4.000000
        cn-shift                       1.200000
        cn-exp                         4.000000
        max-rad                        5.000000

      * Solvation model:               ALPB
        Solvent                        water
        Parameter file                 internal GFN2-xTB/ALPB
        Dielectric constant                8.0200E+01
        Reference state                gsolv [1 M gas/solution]
        Free energy shift                  1.0808E-03 Eh       6.7819E-01 kcal/mol
        Temperature                        2.9815E+02 K
        Density                            1.0000E+00 kg/L
        Solvent mass                       1.8000E+01 g/mol
        Interaction kernel             P16
        Born radius scaling (c1)           1.4744E+00
        Born radii integrator          GBOBC
        Born offset                        0.0000E+00 a0       0.0000E+00 AA
        H-bond correction              true
        Ion screening                  false
        Surface tension                    1.0000E-05 Eh       1.5569E+01 dyn/cm
        Grid points                               974 per atom

          ...................................................
          :                      SETUP                      :
          :.................................................:
          :  # basis functions                  53          :
          :  # atomic orbitals                  53          :
          :  # shells                           31          :
          :  # electrons                        54          :
          :  max. iterations                   250          :
          :  Hamiltonian                  GFN2-xTB          :
          :  restarted?                      false          :
          :  GBSA solvation                   true          :
          :  PC potential                    false          :
          :  electronic temp.          300.0000000     K    :
          :  accuracy                    1.0000000          :
          :  -> integral cutoff          0.2500000E+02      :
          :  -> integral neglect         0.1000000E-07      :
          :  -> SCF convergence          0.1000000E-05 Eh   :
          :  -> wf. convergence          0.1000000E-03 e    :
          :  Broyden damping             0.4000000          :
          :  net charge                          0          :
          :  unpaired electrons                  0          :
          ...................................................

 iter      E             dE          RMSdq      gap      omega  full diag
   1    -29.4085557 -0.294086E+02  0.451E+00    2.57       0.0  T
   2    -29.4287066 -0.201509E-01  0.277E+00    2.71       1.0  T
   3    -29.4233586  0.534799E-02  0.107E+00    2.83       1.0  T
   4    -29.4320898 -0.873118E-02  0.220E-01    2.76       1.0  T
   5    -29.4325581 -0.468347E-03  0.777E-02    2.76       1.0  T
   6    -29.4325950 -0.368866E-04  0.405E-02    2.76       1.0  T
   7    -29.4326056 -0.106176E-04  0.138E-02    2.76       1.6  T
   8    -29.4326062 -0.564268E-06  0.675E-03    2.76       3.3  T
   9    -29.4326064 -0.166300E-06  0.167E-03    2.76      13.4  T
  10    -29.4326064 -0.270605E-07  0.698E-04    2.76      32.1  T
  11    -29.4326064 -0.319140E-09  0.308E-04    2.76      72.7  T

   *** convergence criteria satisfied after 11 iterations ***

         #    Occupation            Energy/Eh            Energy/eV
      -------------------------------------------------------------
         1        2.0000           -0.6445813             -17.5399
       ...           ...                  ...                  ...
        21        2.0000           -0.4393071             -11.9542
        22        2.0000           -0.4311511             -11.7322
        23        2.0000           -0.4125045             -11.2248
        24        2.0000           -0.4089749             -11.1288
        25        2.0000           -0.3967772             -10.7969
        26        2.0000           -0.3909754             -10.6390
        27        2.0000           -0.3485200              -9.4837 (HOMO)
        28                         -0.2470245              -6.7219 (LUMO)
        29                         -0.2220571              -6.0425
        30                         -0.1781418              -4.8475
        31                         -0.1379828              -3.7547
        32                         -0.0534057              -1.4532
       ...                                ...                  ...
        53                          0.6778820              18.4461
      -------------------------------------------------------------
                  HL-Gap            0.1014954 Eh            2.7618 eV
             Fermi-level           -0.2977722 Eh           -8.1028 eV

 SCC (total)                   0 d,  0 h,  0 min,  0.026 sec
 SCC setup                      ...        0 min,  0.001 sec (  3.980%)
 Dispersion                     ...        0 min,  0.000 sec (  0.452%)
 classical contributions        ...        0 min,  0.000 sec (  0.086%)
 integral evaluation            ...        0 min,  0.002 sec (  6.893%)
 iterations                     ...        0 min,  0.018 sec ( 69.590%)
 molecular gradient             ...        0 min,  0.005 sec ( 18.527%)
 printout                       ...        0 min,  0.000 sec (  0.429%)

         :::::::::::::::::::::::::::::::::::::::::::::::::::::
         ::                     SUMMARY                     ::
         :::::::::::::::::::::::::::::::::::::::::::::::::::::
         :: total energy             -28.914670424779 Eh    ::
         :: total w/o Gsasa/hb       -28.910029484601 Eh    ::
         :: gradient norm              0.018733575396 Eh/a0 ::
         :: HOMO-LUMO gap              2.761830487923 eV    ::
         ::.................................................::
         :: SCC energy               -29.432536770148 Eh    ::
         :: -> isotropic ES            0.013052545731 Eh    ::
         :: -> anisotropic ES          0.006918361899 Eh    ::
         :: -> anisotropic XC          0.018514647413 Eh    ::
         :: -> dispersion             -0.019011024789 Eh    ::
         :: -> Gsolv                  -0.007164570230 Eh    ::
         ::    -> Gelec               -0.002523630052 Eh    ::
         ::    -> Gsasa               -0.003090497818 Eh    ::
         ::    -> Ghb                 -0.002631202058 Eh    ::
         ::    -> Gshift               0.001080759698 Eh    ::
         :: repulsion energy           0.517866345369 Eh    ::
         :: add. restraining           0.000000000000 Eh    ::
         :: total charge               0.000000000000 e     ::
         :::::::::::::::::::::::::::::::::::::::::::::::::::::

      ----------------------------------------------------------- 
     |                   =====================                   |
     |                        A N C O P T                        |
     |                   =====================                   |
     |               Approximate Normal Coordinate               |
     |                Rational Function Optimizer                |
      ----------------------------------------------------------- 
      ----------------------------------------------------------- 
     |                   =====================                   |
     |                        A N C O P T                        |
     |                   =====================                   |
     |               Approximate Normal Coordinate               |
     |                Rational Function Optimizer                |
      ----------------------------------------------------------- 

          ...................................................
          :                      SETUP                      :
          :.................................................:
          :   optimization level         verytight          :
          :   max. optcycles                   400          :
          :   ANC micro-cycles                  20          :
          :   degrees of freedom                54          :
          :.................................................:
          :   RF solver                   davidson          :
          :   write xtbopt.log                true          :
          :   linear?                        false          :
          :   energy convergence         0.1000000E-06 Eh   :
          :   grad. convergence          0.2000000E-03 Eh/α :
          :   maxmium RF displ.          1.0000000          :
          :   Hlow (freq-cutoff)         0.1000000E-01      :
          :   Hmax (freq-cutoff)         5.0000000          :
          :   S6 in model hess.         20.0000000          :
          ...................................................

generating ANC from exact Hessian ...
Using Lindh-Hessian (1995)
 Shifting diagonal of input Hessian by   6.763893582154472E-003
 Lowest  eigenvalues of input Hessian
    0.000000    0.000000    0.000000    0.000000    0.000000    0.000000
    0.010000    0.012178    0.015790    0.018577    0.022625    0.024609
    0.027226    0.028271    0.040752    0.043337    0.057270    0.067319
 Highest eigenvalues
    1.771486    1.797759    1.854650    1.933272    2.036297    2.055877
 

........................................................................
.............................. CYCLE    1 ..............................
........................................................................

 iter      E             dE          RMSdq      gap      omega  full diag
   1    -29.4326064 -0.294326E+02  0.856E-05    2.76       0.0  T
   2    -29.4326064 -0.170104E-10  0.569E-05    2.76     393.1  T
   3    -29.4326064 -0.350653E-11  0.320E-05    2.76     699.3  T
     SCC iter.                  ...        0 min,  0.001 sec
     gradient                   ...        0 min,  0.005 sec
 * total energy  :   -28.9146704 Eh     change       -0.7456293E-09 Eh
   gradient norm :     0.0187341 Eh/α   predicted     0.0000000E+00 (-100.00%)
   displ. norm   :     0.0997956 α      lambda       -0.1586022E-02
   maximum displ.:     0.0507853 α      in ANC's #26, #28, #13, ...

........................................................................
.............................. CYCLE    2 ..............................
........................................................................

 iter      E             dE          RMSdq      gap      omega  full diag
   1    -29.4533105 -0.294533E+02  0.111E-01    2.79       0.0  T
   2    -29.4533138 -0.331206E-05  0.654E-02    2.78       1.0  T
   3    -29.4533044  0.939626E-05  0.329E-02    2.79       1.0  T
   4    -29.4533165 -0.121009E-04  0.279E-03    2.78       8.0  T
   5    -29.4533166 -0.606024E-07  0.143E-03    2.78      15.7  T
   6    -29.4533166 -0.571809E-08  0.492E-04    2.78      45.4  T
   7    -29.4533166 -0.875069E-09  0.200E-04    2.78     111.6  T
     SCC iter.                  ...        0 min,  0.003 sec
     gradient                   ...        0 min,  0.005 sec
 * total energy  :   -28.9156393 Eh     change       -0.9689172E-03 Eh
   gradient norm :     0.0060367 Eh/α   predicted    -0.8079585E-03 ( -16.61%)
   displ. norm   :     0.0367508 α      lambda       -0.1548929E-03
   maximum displ.:     0.0157401 α      in ANC's #28, #26, #30, ...

........................................................................
.............................. CYCLE    3 ..............................
........................................................................

 iter      E             dE          RMSdq      gap      omega  full diag
   1    -29.4586220 -0.294586E+02  0.439E-02    2.78       0.0  T
   2    -29.4586246 -0.261921E-05  0.251E-02    2.78       1.0  T
   3    -29.4586248 -0.164313E-06  0.166E-02    2.79       1.3  T
   4    -29.4586264 -0.158595E-05  0.211E-03    2.78      10.6  T
   5    -29.4586264 -0.435623E-07  0.879E-04    2.78      25.4  T
   6    -29.4586264 -0.402786E-08  0.476E-04    2.78      47.0  T
     SCC iter.                  ...        0 min,  0.003 sec
     gradient                   ...        0 min,  0.005 sec
 * total energy  :   -28.9157403 Eh     change       -0.1009271E-03 Eh
   gradient norm :     0.0038367 Eh/α   predicted    -0.7755664E-04 ( -23.16%)
   displ. norm   :     0.0323543 α      lambda       -0.6527985E-04
   maximum displ.:     0.0120391 α      in ANC's #30, #6, #3, ...

........................................................................
.............................. CYCLE    4 ..............................
........................................................................

 iter      E             dE          RMSdq      gap      omega  full diag
   1    -29.4599578 -0.294600E+02  0.360E-02    2.78       0.0  T
   2    -29.4599609 -0.316540E-05  0.202E-02    2.78       1.1  T
   3    -29.4599620 -0.106683E-05  0.134E-02    2.78       1.7  T
   4    -29.4599628 -0.756011E-06  0.239E-03    2.78       9.4  T
   5    -29.4599628 -0.439870E-07  0.104E-03    2.78      21.5  T
   6    -29.4599628 -0.689242E-08  0.534E-04    2.78      41.9  T
   7    -29.4599628 -0.641148E-09  0.183E-04    2.78     122.2  T
     SCC iter.                  ...        0 min,  0.003 sec
     gradient                   ...        0 min,  0.005 sec
 * total energy  :   -28.9157886 Eh     change       -0.4831955E-04 Eh
   gradient norm :     0.0027555 Eh/α   predicted    -0.3273172E-04 ( -32.26%)
   displ. norm   :     0.0423837 α      lambda       -0.5334021E-04
   maximum displ.:     0.0178107 α      in ANC's #1, #6, #3, ...

........................................................................
.............................. CYCLE    5 ..............................
........................................................................

 iter      E             dE          RMSdq      gap      omega  full diag
   1    -29.4595742 -0.294596E+02  0.417E-02    2.77       0.0  T
   2    -29.4595787 -0.455001E-05  0.232E-02    2.77       1.0  T
   3    -29.4595802 -0.152804E-05  0.154E-02    2.77       1.5  T
   4    -29.4595812 -0.984448E-06  0.295E-03    2.77       7.6  T
   5    -29.4595813 -0.595454E-07  0.131E-03    2.77      17.0  T
   6    -29.4595813 -0.106541E-07  0.662E-04    2.77      33.8  T
   7    -29.4595813 -0.982716E-09  0.218E-04    2.77     102.6  T
     SCC iter.                  ...        0 min,  0.003 sec
     gradient                   ...        0 min,  0.005 sec
 * total energy  :   -28.9158230 Eh     change       -0.3438246E-04 Eh
   gradient norm :     0.0019275 Eh/α   predicted    -0.2672139E-04 ( -22.28%)
   displ. norm   :     0.0375447 α      lambda       -0.1347810E-04
   maximum displ.:     0.0217035 α      in ANC's #1, #6, #3, ...

........................................................................
.............................. CYCLE    6 ..............................
........................................................................

 iter      E             dE          RMSdq      gap      omega  full diag
   1    -29.4586570 -0.294587E+02  0.296E-02    2.76       0.0  T
   2    -29.4586589 -0.190114E-05  0.165E-02    2.76       1.4  T
   3    -29.4586594 -0.492065E-06  0.110E-02    2.76       2.0  T
   4    -29.4586600 -0.586918E-06  0.201E-03    2.76      11.1  T
   5    -29.4586600 -0.249369E-07  0.930E-04    2.76      24.0  T
   6    -29.4586600 -0.474469E-08  0.465E-04    2.76      48.1  T
     SCC iter.                  ...        0 min,  0.002 sec
     gradient                   ...        0 min,  0.005 sec
 * total energy  :   -28.9158330 Eh     change       -0.1005228E-04 Eh
   gradient norm :     0.0010155 Eh/α   predicted    -0.6752765E-05 ( -32.82%)
   displ. norm   :     0.0129945 α      lambda       -0.2089901E-05
   maximum displ.:     0.0096310 α      in ANC's #1, #2, #4, ...

........................................................................
.............................. CYCLE    7 ..............................
........................................................................

 iter      E             dE          RMSdq      gap      omega  full diag
   1    -29.4588736 -0.294589E+02  0.680E-03    2.76       0.0  T
   2    -29.4588737 -0.118152E-07  0.403E-03    2.76       5.6  T
   3    -29.4588736  0.104332E-07  0.102E-03    2.76      21.9  T
   4    -29.4588737 -0.146122E-07  0.170E-04    2.76     131.5  T
   5    -29.4588737 -0.740208E-10  0.987E-05    2.76     226.5  T
     SCC iter.                  ...        0 min,  0.002 sec
     gradient                   ...        0 min,  0.005 sec
 * total energy  :   -28.9158354 Eh     change       -0.2352152E-05 Eh
   gradient norm :     0.0003425 Eh/α   predicted    -0.1084566E-05 ( -53.89%)
   displ. norm   :     0.0215903 α      lambda       -0.1528257E-05
   maximum displ.:     0.0153092 α      in ANC's #1, #2, #6, ...

........................................................................
.............................. CYCLE    8 ..............................
........................................................................

 iter      E             dE          RMSdq      gap      omega  full diag
   1    -29.4590428 -0.294590E+02  0.957E-03    2.76       0.0  T
   2    -29.4590428 -0.124947E-07  0.560E-03    2.76       4.0  T
   3    -29.4590428  0.303382E-07  0.164E-03    2.76      13.6  T
   4    -29.4590428 -0.388692E-07  0.277E-04    2.76      80.8  T
   5    -29.4590428 -0.963176E-10  0.147E-04    2.76     152.0  T
     SCC iter.                  ...        0 min,  0.002 sec
     gradient                   ...        0 min,  0.005 sec
 * total energy  :   -28.9158368 Eh     change       -0.1420477E-05 Eh
   gradient norm :     0.0002980 Eh/α   predicted    -0.7698649E-06 ( -45.80%)
   displ. norm   :     0.0107282 α      lambda       -0.3225771E-06
   maximum displ.:     0.0083092 α      in ANC's #1, #2, #6, ...

........................................................................
.............................. CYCLE    9 ..............................
........................................................................

 iter      E             dE          RMSdq      gap      omega  full diag
   1    -29.4590379 -0.294590E+02  0.507E-03    2.76       0.0  T
   2    -29.4590379 -0.181179E-08  0.299E-03    2.76       7.5  T
   3    -29.4590379  0.108183E-08  0.361E-04    2.76      61.9  T
   4    -29.4590379 -0.198767E-08  0.101E-04    2.76     221.1  T
     SCC iter.                  ...        0 min,  0.002 sec
     gradient                   ...        0 min,  0.005 sec
 * total energy  :   -28.9158372 Eh     change       -0.3609212E-06 Eh
   gradient norm :     0.0002222 Eh/α   predicted    -0.1886444E-06 ( -47.73%)
   displ. norm   :     0.0060791 α      lambda       -0.1237604E-06
   maximum displ.:     0.0049168 α      in ANC's #1, #2, #6, ...

........................................................................
.............................. CYCLE   10 ..............................
........................................................................

 iter      E             dE          RMSdq      gap      omega  full diag
   1    -29.4590043 -0.294590E+02  0.292E-03    2.76       0.0  T
   2    -29.4590043 -0.659689E-09  0.172E-03    2.76      13.0  T
   3    -29.4590043  0.265404E-08  0.455E-04    2.76      49.2  T
   4    -29.4590043 -0.319026E-08  0.530E-05    2.76     422.2  T
     SCC iter.                  ...        0 min,  0.002 sec
     gradient                   ...        0 min,  0.005 sec
 * total energy  :   -28.9158373 Eh     change       -0.1293171E-06 Eh
   gradient norm :     0.0000966 Eh/α   predicted    -0.6997056E-07 ( -45.89%)
   displ. norm   :     0.0050095 α      lambda        0.6492728E-07
   maximum displ.:     0.0039121 α      in ANC's #1, #2, #6, ...

........................................................................
.............................. CYCLE   11 ..............................
........................................................................

 iter      E             dE          RMSdq      gap      omega  full diag
   1    -29.4589714 -0.294590E+02  0.244E-03    2.76       0.0  T
   2    -29.4589714 -0.458432E-09  0.144E-03    2.76      15.5  T
   3    -29.4589714  0.176110E-08  0.371E-04    2.76      60.2  T
   4    -29.4589714 -0.212170E-08  0.443E-05    2.76     504.8  T
     SCC iter.                  ...        0 min,  0.002 sec
     gradient                   ...        0 min,  0.005 sec
 * total energy  :   -28.9158373 Eh     change        0.3571780E-07 Eh
   gradient norm :     0.0001656 Eh/α   predicted     0.3063792E-07 ( -14.22%)
   displ. norm   :     0.0026267 α      lambda       -0.9107016E-07
   maximum displ.:     0.0016250 α      in ANC's #2, #6, #1, ...

........................................................................
.............................. CYCLE   12 ..............................
........................................................................

 iter      E             dE          RMSdq      gap      omega  full diag
   1    -29.4589991 -0.294590E+02  0.163E-03    2.76       0.0  T
   2    -29.4589991 -0.694712E-09  0.973E-04    2.76      23.0  T
   3    -29.4589991  0.188703E-08  0.432E-04    2.76      51.7  T
     SCC iter.                  ...        0 min,  0.001 sec
     gradient                   ...        0 min,  0.005 sec
 * total energy  :   -28.9158373 Eh     change       -0.7484420E-07 Eh
   gradient norm :     0.0000600 Eh/α   predicted    -0.4786488E-07 ( -36.05%)
   displ. norm   :     0.0013620 α      lambda       -0.1028182E-07
   maximum displ.:     0.0008558 α      in ANC's #2, #6, #7, ...

   *** GEOMETRY OPTIMIZATION CONVERGED AFTER 12 ITERATIONS ***

------------------------------------------------------------------------
 total energy gain   :        -0.0011669 Eh       -0.7322 kcal/mol
 total RMSD          :         0.0487250 a0        0.0258 Å
 total power (kW/mol):        -0.2553083 (step)  -25.8931 (real)
------------------------------------------------------------------------

 ANCopt (total)                0 d,  0 h,  0 min,  0.118 sec
 optimizer setup                ...        0 min,  0.000 sec (  0.249%)
 model hessian                  ...        0 min,  0.002 sec (  1.754%)
 ANC generation                 ...        0 min,  0.000 sec (  0.308%)
 coordinate transformation      ...        0 min,  0.000 sec (  0.050%)
 single point calculation       ...        0 min,  0.113 sec ( 95.891%)
 optimization log               ...        0 min,  0.001 sec (  0.921%)
 hessian update                 ...        0 min,  0.000 sec (  0.051%)
 rational function              ...        0 min,  0.000 sec (  0.408%)

================
 final structure:
================
$coord
       -5.16719154524325       -0.48925793364566       -0.00540576727642      C
       -4.44050332451059        2.05736320988829        0.01903318133911      C
       -1.93589195503260        2.69995285607028        0.01879104099881      C
       -0.02778741218619        0.84084273426868       -0.00662718447934      C
       -0.76818657442769       -1.74145026620718       -0.01002520925418      C
       -3.36744554300011       -2.33943725371197       -0.01550939074317      C
        1.08311682433810       -3.65567628468729        0.00247743054385      C
        3.59219615002657       -3.03302538866658        0.02021812193757      C
        4.34961016523719       -0.50836583418109       -0.00082955576156      C
        2.60693631911257        1.43958062478718       -0.02426683749714      C
        3.42328400457711        3.90081580498051        0.06208998765934      N
       -7.15028016951502       -0.97285110111987       -0.00885523337749      H
       -5.87265034196134        3.51119167618843        0.04174112759491      H
       -1.43113291990318        4.67593376535995        0.06459800261915      H
       -3.90590468493891       -4.31001846284321       -0.02295643123155      H
        0.48636976192873       -5.60760531188822        0.00291820166970      H
        5.01674795576808       -4.49588912777834        0.03446810020087      H
        6.34210611784239       -0.06036610760712       -0.00145380083571      H
        5.25979635385940        4.17489672704732       -0.34947813681622      H
        2.24602014006145        5.24460106578212       -0.58293327724991      H
$end
 
 Bond Distances (Angstroems)
 ---------------------------
C1-C2=1.4015         C1-C6=1.3659         C1-H12=1.0802        C2-C1=1.4015         C2-C3=1.3683         C2-H13=1.0800        
C3-C2=1.3683         C3-C4=1.4098         C3-H14=1.0795        C4-C3=1.4098         C4-C5=1.4216         C4-C10=1.4298        
C5-C4=1.4216         C5-C6=1.4114         C5-C7=1.4092         C6-C1=1.3659         C6-C5=1.4114         C6-H15=1.0810        
C7-C5=1.4092         C7-C8=1.3681         C7-H16=1.0801        C8-C7=1.3681         C8-C9=1.3949         C8-H17=1.0805        
C9-C8=1.3949         C9-C10=1.3832        C9-H18=1.0807        C10-C4=1.4298        C10-C9=1.3832        C10-N11=1.3730       
N11-C10=1.3730       N11-H19=1.0065       N11-H20=1.0051       H12-C1=1.0802        H13-C2=1.0800        H14-C3=1.0795        
H15-C6=1.0810        H16-C7=1.0801        H17-C8=1.0805        H18-C9=1.0807        H19-N11=1.0065       H20-N11=1.0051       
 C  H  Rav=1.0803 sigma=0.0005  Rmin=1.0795  Rmax=1.0810     7
 C  C  Rav=1.3967 sigma=0.0214  Rmin=1.3659  Rmax=1.4298    11
 N  H  Rav=1.0058 sigma=0.0007  Rmin=1.0051  Rmax=1.0065     2
 N  C  Rav=1.3730 sigma=0.0000  Rmin=1.3730  Rmax=1.3730     1
 
 selected bond angles (degree)
 --------------------
C6-C1-C2=119.87                H12-C1-C2=119.63               H12-C1-C6=120.50               C3-C2-C1=120.31                
H13-C2-C1=119.51               H13-C2-C3=120.18               C4-C3-C2=121.35                H14-C3-C2=118.71               
H14-C3-C4=119.93               C5-C4-C3=118.26                C10-C4-C3=122.94               C10-C4-C5=118.80               
C6-C5-C4=118.95                C7-C5-C4=119.96                C7-C5-C6=121.09                C5-C6-C1=121.25                
H15-C6-C1=120.51               H15-C6-C5=118.24               C8-C7-C5=120.11                H16-C7-C5=118.96               
H16-C7-C8=120.94               C9-C8-C7=120.63                H17-C8-C7=120.30               H17-C8-C9=119.06               
C10-C9-C8=121.49               H18-C9-C8=119.37               H18-C9-C10=119.14              C9-C10-C4=119.01               
N11-C10-C4=121.12              N11-C10-C9=119.79              
 
 selected dihedral angles (degree)
 ---------------------------------
C3-C2-C1-C6=  0.36            C3-C2-C1-H12=180.13           H13-C2-C1-C6=180.48           H13-C2-C1-H12=  0.24          
C4-C3-C2-C1=  0.00            C4-C3-C2-H13=179.90           H14-C3-C2-C1=180.85           H14-C3-C2-H13=  0.74          
C5-C4-C3-C2=359.46            C5-C4-C3-H14=178.62           C10-C4-C3-C2=179.58           C10-C4-C3-H14=358.74          
C6-C5-C4-C3=  0.68            C6-C5-C4-C10=180.56           C7-C5-C4-C3=180.93            C7-C5-C4-C10=  0.82           
C5-C6-C1-C2=359.79            C5-C6-C1-H12=180.03           H15-C6-C1-C2=179.63           H15-C6-C1-H12=359.87          
C1-C6-C5-C4=359.68            C1-C6-C5-C7=179.42            H15-C6-C5-C4=179.84           H15-C6-C5-C7=359.58           
C8-C7-C5-C4=  0.06            C8-C7-C5-C6=180.32            H16-C7-C5-C4=179.90           H16-C7-C5-C6=  0.16           
C9-C8-C7-C5=359.32            C9-C8-C7-H16=179.49           H17-C8-C7-C5=179.85           H17-C8-C7-H16=  0.00          
C10-C9-C8-C7=  0.41           C10-C9-C8-H17=179.88          H18-C9-C8-C7=180.49           H18-C9-C8-H17=359.97          
C9-C10-C4-C3=178.80           C9-C10-C4-C5=358.92           N11-C10-C4-C3=  2.05          N11-C10-C4-C5=182.17          
C4-C10-C9-C8=  0.49           C4-C10-C9-H18=180.41          N11-C10-C9-C8=177.29          N11-C10-C9-H18=357.20         
           -------------------------------------------------
          |                Final Singlepoint                |
           -------------------------------------------------

          ...................................................
          :                      SETUP                      :
          :.................................................:
          :  # basis functions                  53          :
          :  # atomic orbitals                  53          :
          :  # shells                           31          :
          :  # electrons                        54          :
          :  max. iterations                   250          :
          :  Hamiltonian                  GFN2-xTB          :
          :  restarted?                      false          :
          :  GBSA solvation                   true          :
          :  PC potential                    false          :
          :  electronic temp.          300.0000000     K    :
          :  accuracy                    1.0000000          :
          :  -> integral cutoff          0.2500000E+02      :
          :  -> integral neglect         0.1000000E-07      :
          :  -> SCF convergence          0.1000000E-05 Eh   :
          :  -> wf. convergence          0.1000000E-03 e    :
          :  Broyden damping             0.4000000          :
          :  net charge                          0          :
          :  unpaired electrons                  0          :
          ...................................................

 iter      E             dE          RMSdq      gap      omega  full diag
   1    -29.4589991 -0.294590E+02  0.436E-05    2.76       0.0  T
   2    -29.4589991 -0.689226E-11  0.270E-05    2.76     828.3  T
   3    -29.4589991 -0.410694E-11  0.161E-05    2.76    1387.4  T

   *** convergence criteria satisfied after 3 iterations ***

         #    Occupation            Energy/Eh            Energy/eV
      -------------------------------------------------------------
         1        2.0000           -0.6461055             -17.5814
       ...           ...                  ...                  ...
        21        2.0000           -0.4380340             -11.9195
        22        2.0000           -0.4317428             -11.7483
        23        2.0000           -0.4115942             -11.2000
        24        2.0000           -0.4077554             -11.0956
        25        2.0000           -0.3970493             -10.8043
        26        2.0000           -0.3914154             -10.6510
        27        2.0000           -0.3456044              -9.4044 (HOMO)
        28                         -0.2441091              -6.6425 (LUMO)
        29                         -0.2188448              -5.9551
        30                         -0.1742485              -4.7415
        31                         -0.1329235              -3.6170
        32                         -0.0463408              -1.2610
       ...                                ...                  ...
        53                          0.7033093              19.1380
      -------------------------------------------------------------
                  HL-Gap            0.1014953 Eh            2.7618 eV
             Fermi-level           -0.2948568 Eh           -8.0235 eV

 SCC (total)                   0 d,  0 h,  0 min,  0.010 sec
 SCC setup                      ...        0 min,  0.001 sec ( 10.834%)
 Dispersion                     ...        0 min,  0.000 sec (  0.662%)
 classical contributions        ...        0 min,  0.000 sec (  0.180%)
 integral evaluation            ...        0 min,  0.002 sec ( 19.534%)
 iterations                     ...        0 min,  0.002 sec ( 18.202%)
 molecular gradient             ...        0 min,  0.005 sec ( 49.432%)
 printout                       ...        0 min,  0.000 sec (  1.025%)

         :::::::::::::::::::::::::::::::::::::::::::::::::::::
         ::                     SUMMARY                     ::
         :::::::::::::::::::::::::::::::::::::::::::::::::::::
         :: total energy             -28.915837328520 Eh    ::
         :: total w/o Gsasa/hb       -28.911186288561 Eh    ::
         :: gradient norm              0.000059026244 Eh/a0 ::
         :: HOMO-LUMO gap              2.761827402942 eV    ::
         ::.................................................::
         :: SCC energy               -29.458930218673 Eh    ::
         :: -> isotropic ES            0.013304756535 Eh    ::
         :: -> anisotropic ES          0.006694722702 Eh    ::
         :: -> anisotropic XC          0.017585563230 Eh    ::
         :: -> dispersion             -0.019117361719 Eh    ::
         :: -> Gsolv                  -0.007450607466 Eh    ::
         ::    -> Gelec               -0.002799567507 Eh    ::
         ::    -> Gsasa               -0.003002977561 Eh    ::
         ::    -> Ghb                 -0.002728822096 Eh    ::
         ::    -> Gshift               0.001080759698 Eh    ::
         :: repulsion energy           0.543092890153 Eh    ::
         :: add. restraining           0.000000000000 Eh    ::
         :: total charge              -0.000000000000 e     ::
         :::::::::::::::::::::::::::::::::::::::::::::::::::::

           ------------------------------------------------- 
          |                Numerical Hessian                |
           ------------------------------------------------- 
step length          :   0.00500
SCC accuracy         :   0.30000
Hessian scale factor :   1.00000
frozen atoms in %    :   0.00000    0
RMS gradient         :   0.00006
estimated CPU  time      0.02 min
estimated wall time      0.02 min

writing file <hessian>.

 projected vibrational frequencies (cm⁻¹)
eigval :       -0.00    -0.00    -0.00    -0.00     0.00     0.00
eigval :      106.50   156.36   234.33   290.40   355.32   385.53
eigval :      438.03   446.20   455.75   489.38   500.51   533.52
eigval :      551.57   605.29   715.68   730.70   753.42   771.81
eigval :      801.88   854.07   860.95   866.87   906.00   915.38
eigval :      924.17   995.76  1080.67  1096.92  1127.79  1170.64
eigval :     1183.49  1197.52  1226.87  1250.84  1290.45  1347.79
eigval :     1384.16  1396.46  1424.53  1449.11  1481.78  1518.25
eigval :     1570.28  1594.40  1609.04  3059.04  3060.46  3066.24
eigval :     3068.05  3076.13  3079.57  3088.73  3476.30  3530.66
           -------------------------------------------------
          |                Property Printout                |
           -------------------------------------------------

    * Orbital Energies and Occupations

         #    Occupation            Energy/Eh            Energy/eV
      -------------------------------------------------------------
         1        2.0000           -0.6461055             -17.5814
       ...           ...                  ...                  ...
        15        2.0000           -0.4881629             -13.2836
        16        2.0000           -0.4767570             -12.9732
        17        2.0000           -0.4732744             -12.8785
        18        2.0000           -0.4602900             -12.5251
        19        2.0000           -0.4567052             -12.4276
        20        2.0000           -0.4521025             -12.3023
        21        2.0000           -0.4380340             -11.9195
        22        2.0000           -0.4317428             -11.7483
        23        2.0000           -0.4115942             -11.2000
        24        2.0000           -0.4077554             -11.0956
        25        2.0000           -0.3970493             -10.8043
        26        2.0000           -0.3914154             -10.6510
        27        2.0000           -0.3456044              -9.4044 (HOMO)
        28                         -0.2441091              -6.6425 (LUMO)
        29                         -0.2188448              -5.9551
        30                         -0.1742486              -4.7415
        31                         -0.1329236              -3.6170
        32                         -0.0463408              -1.2610
        33                          0.0405093               1.1023
        34                          0.1099711               2.9925
        35                          0.1289273               3.5083
        36                          0.1495735               4.0701
        37                          0.1535774               4.1791
        38                          0.1726679               4.6985
       ...                                ...                  ...
        53                          0.7033092              19.1380
      -------------------------------------------------------------
                  HL-Gap            0.1014953 Eh            2.7618 eV
             Fermi-level           -0.2948568 Eh           -8.0235 eV

     #   Z          covCN         q      C6AA      α(0)
     1   6 C        2.915    -0.038    28.952     8.823
     2   6 C        2.916    -0.043    29.056     8.839
     3   6 C        2.918    -0.041    29.013     8.833
     4   6 C        2.985    -0.014    28.348     8.734
     5   6 C        2.987     0.006    27.871     8.660
     6   6 C        2.921    -0.043    29.064     8.841
     7   6 C        2.919    -0.062    29.551     8.914
     8   6 C        2.914    -0.038    28.935     8.821
     9   6 C        2.922    -0.077    29.935     8.972
    10   6 C        2.894     0.074    26.343     8.415
    11   7 N        2.642    -0.304    27.842     7.837
    12   1 H        0.926     0.027     2.623     2.533
    13   1 H        0.926     0.029     2.601     2.522
    14   1 H        0.926     0.036     2.509     2.477
    15   1 H        0.926     0.026     2.642     2.542
    16   1 H        0.926     0.018     2.766     2.601
    17   1 H        0.926     0.023     2.693     2.566
    18   1 H        0.926     0.025     2.665     2.553
    19   1 H        0.860     0.200     1.105     1.647
    20   1 H        0.860     0.196     1.125     1.662

 Mol. C6AA /au·bohr⁶  :       5227.381604
 Mol. C8AA /au·bohr⁸  :     129331.302744
 Mol. α(0) /au        :        116.790706


Wiberg/Mayer (AO) data.
largest (>0.10) Wiberg bond orders for each atom

 ---------------------------------------------------------------------------
     #   Z sym  total        # sym  WBO       # sym  WBO       # sym  WBO
 ---------------------------------------------------------------------------
     1   6 C    3.992 --     6 C    1.554     2 C    1.326    12 H    0.971
     2   6 C    3.992 --     3 C    1.542     1 C    1.326    13 H    0.971
     3   6 C    3.992 --     2 C    1.542     4 C    1.302    14 H    0.962
                             6 C    0.116
     4   6 C    3.988 --     3 C    1.302     5 C    1.256    10 C    1.202
     5   6 C    3.990 --     6 C    1.280     7 C    1.279     4 C    1.256
     6   6 C    3.992 --     1 C    1.554     5 C    1.280    15 H    0.969
                             3 C    0.116
     7   6 C    3.989 --     8 C    1.527     5 C    1.279    16 H    0.969
     8   6 C    3.993 --     7 C    1.527     9 C    1.359    17 H    0.971
     9   6 C    3.983 --    10 C    1.424     8 C    1.359    18 H    0.968
    10   6 C    3.975 --     9 C    1.424     4 C    1.202    11 N    1.191
    11   7 N    3.277 --    10 C    1.191    19 H    0.940    20 H    0.935
    12   1 H    0.998 --     1 C    0.971
    13   1 H    0.999 --     2 C    0.971
    14   1 H    0.998 --     3 C    0.962
    15   1 H    0.999 --     6 C    0.969
    16   1 H    0.999 --     7 C    0.969
    17   1 H    0.998 --     8 C    0.971
    18   1 H    0.999 --     9 C    0.968
    19   1 H    0.959 --    11 N    0.940
    20   1 H    0.961 --    11 N    0.935
 ---------------------------------------------------------------------------

Topologies differ in total number of bonds
Writing topology from bond orders to xtbtopo.mol

molecular dipole:
                 x           y           z       tot (Debye)
 q only:        0.469       0.989      -0.203
   full:        0.465       0.975      -0.372       2.904
molecular quadrupole (traceless):
                xx          xy          yy          xz          yz          zz
 q only:        0.753       4.727       3.427      -1.047      -1.435      -4.181
  q+dip:        4.486       4.562       6.198      -2.004      -2.721     -10.683
   full:        2.363       4.737       4.461      -2.005      -2.758      -6.823

           -------------------------------------------------
          |                Geometry Summary                 |
           -------------------------------------------------

      molecular mass/u    :      143.1855290
   center of mass at/Å    :        0.0000087       0.0000375       0.0000571
  moments of inertia/u·Å² :        0.2565357E+03   0.4456107E+03   0.7018368E+03
rotational constants/cm⁻¹ :        0.6571262E-01   0.3783041E-01   0.2401931E-01

 * 21 selected distances

     #   Z          #   Z                                           value/Å
     1   6 C        2   6 C                                       1.4014660
     2   6 C        3   6 C                                       1.3683095
     3   6 C        4   6 C                                       1.4098180
     4   6 C        5   6 C                                       1.4215517
     1   6 C        6   6 C                                       1.3658875
     5   6 C        6   6 C                                       1.4114027
     5   6 C        7   6 C                                       1.4092162
     7   6 C        8   6 C                                       1.3680525
     8   6 C        9   6 C                                       1.3948640
     4   6 C       10   6 C                                       1.4298138 (max)
     9   6 C       10   6 C                                       1.3831642
    10   6 C       11   7 N                                       1.3729636
     1   6 C       12   1 H                                       1.0801589
     2   6 C       13   1 H                                       1.0799856
     3   6 C       14   1 H                                       1.0794931
     6   6 C       15   1 H                                       1.0810230
     7   6 C       16   1 H                                       1.0801095
     8   6 C       17   1 H                                       1.0805485
     9   6 C       18   1 H                                       1.0807070
    11   7 N       19   1 H                                       1.0064509
    11   7 N       20   1 H                                       1.0051254 (min)

 * 4 distinct bonds (by element types)

   Z      Z             #   av. dist./Å        max./Å        min./Å
   1 H    6 C           7     1.0802894     1.0810230     1.0794931
   6 C    6 C          11     1.3966860     1.4298138     1.3658875
   1 H    7 N           2     1.0057882     1.0064509     1.0051254
   6 C    7 N           1     1.3729636     1.3729636     1.3729636

           -------------------------------------------------
          |               Frequency Printout                |
           -------------------------------------------------
 projected vibrational frequencies (cm⁻¹)
eigval :       -0.00    -0.00    -0.00    -0.00     0.00     0.00
eigval :      106.50   156.36   234.33   290.40   355.32   385.53
eigval :      438.03   446.20   455.75   489.38   500.51   533.52
eigval :      551.57   605.29   715.68   730.70   753.42   771.81
eigval :      801.88   854.07   860.95   866.87   906.00   915.38
eigval :      924.17   995.76  1080.67  1096.92  1127.79  1170.64
eigval :     1183.49  1197.52  1226.87  1250.84  1290.45  1347.79
eigval :     1384.16  1396.46  1424.53  1449.11  1481.78  1518.25
eigval :     1570.28  1594.40  1609.04  3059.04  3060.46  3066.24
eigval :     3068.05  3076.13  3079.57  3088.73  3476.30  3530.66
 reduced masses (amu)
   1: 11.16   2: 10.79   3: 10.85   4: 11.52   5: 11.02   6: 11.40   7: 10.05   8:  9.76
   9:  9.79  10: 10.47  11:  2.90  12:  8.46  13:  9.19  14:  9.70  15: 11.38  16: 10.09
  17:  5.40  18:  9.74  19: 11.16  20: 10.52  21: 10.44  22: 10.79  23:  4.45  24: 10.86
  25:  3.68  26:  3.78  27: 10.52  28:  3.94  29:  3.88  30:  3.19  31:  3.25  32:  5.57
  33:  8.68  34:  6.74  35:  5.39  36:  2.91  37:  1.77  38:  3.26  39:  6.36  40:  4.34
  41:  7.47  42:  9.69  43:  8.39  44: 10.86  45:  8.57  46:  7.43  47:  6.68  48: 10.59
  49: 11.62  50: 11.34  51: 11.41  52:  1.75  53:  1.76  54:  1.82  55:  1.78  56:  1.85
  57:  1.90  58:  1.90  59:  1.46  60:  2.15
 IR intensities (km·mol⁻¹)
   1:  1.10   2:  0.41   3:  0.08   4:  0.02   5:  0.25   6:  0.01   7:  1.47   8:  0.94
   9:  2.79  10:  3.12  11: 42.23  12: 22.95  13: 44.52  14:  5.27  15: 14.95  16: 62.17
  17:343.02  18: 54.61  19:  5.09  20: 22.47  21:  3.56  22:  2.45  23:  0.22  24:  0.78
  25: 46.64  26:  0.55  27:  1.19  28:  0.18  29:  0.40  30:  0.06  31:  0.03  32:  5.14
  33: 10.29  34: 14.94  35:  6.65  36:  5.96  37:  1.89  38:  0.18  39: 12.13  40:  0.91
  41:125.56  42:  4.63  43: 45.50  44: 81.73  45:  8.12  46: 20.06  47:193.91  48:174.12
  49:224.03  50: 49.83  51:  4.57  52: 34.58  53: 13.21  54:172.26  55: 61.32  56:225.79
  57:364.98  58: 75.08  59: 26.77  60: 24.00
 Raman intensities (Ä⁴*amu⁻¹)
   1:  0.00   2:  0.00   3:  0.00   4:  0.00   5:  0.00   6:  0.00   7:  0.00   8:  0.00
   9:  0.00  10:  0.00  11:  0.00  12:  0.00  13:  0.00  14:  0.00  15:  0.00  16:  0.00
  17:  0.00  18:  0.00  19:  0.00  20:  0.00  21:  0.00  22:  0.00  23:  0.00  24:  0.00
  25:  0.00  26:  0.00  27:  0.00  28:  0.00  29:  0.00  30:  0.00  31:  0.00  32:  0.00
  33:  0.00  34:  0.00  35:  0.00  36:  0.00  37:  0.00  38:  0.00  39:  0.00  40:  0.00
  41:  0.00  42:  0.00  43:  0.00  44:  0.00  45:  0.00  46:  0.00  47:  0.00  48:  0.00
  49:  0.00  50:  0.00  51:  0.00  52:  0.00  53:  0.00  54:  0.00  55:  0.00  56:  0.00
  57:  0.00  58:  0.00  59:  0.00  60:  0.00
 output can be read by thermo (or use thermo option).
 writing <g98.out> molden fake output.
 recommended (thermochemical) frequency scaling factor: 1.0
           -------------------------------------------------
          |             Thermodynamic Functions             |
           -------------------------------------------------

Molecule has no symmetry elements
It seems to be the C1 point group
c1  symmetry found (for desy threshold:  0.10E+00) used in thermo

          ...................................................
          :                      SETUP                      :
          :.................................................:
          :  # frequencies                          54      :
          :  # imaginary freq.                       0      :
          :  linear?                             false      :
          :  only rotor calc.                    false      :
          :  symmetry                               c1      :
          :  rotational number                       1      :
          :  scaling factor                  1.0000000      :
          :  rotor cutoff                    0.0000000 cm⁻¹ :
          :  imag. cutoff                 -100.0000000 cm⁻¹ :
          :.................................................:

    mode    ω/cm⁻¹     T·S(HO)/kcal·mol⁻¹    T·S(FR)/kcal·mol⁻¹   T·S(vib)
   ------------------------------------------------------------------------
       1    106.50    -0.99334 (100.00%)    -0.83245 (  0.00%)    -0.99334
       2    156.36    -0.77323 (100.00%)    -0.71873 (  0.00%)    -0.77323
       3    234.33    -0.55025 (100.00%)    -0.59890 (  0.00%)    -0.55025
       4    290.40    -0.43877 (100.00%)    -0.53536 (  0.00%)    -0.43877
   ------------------------------------------------------------------------

   temp. (K)  partition function   enthalpy   heat capacity  entropy
                                   cal/mol     cal/K/mol   cal/K/mol   J/K/mol
 298.15  VIB   37.5                 3668.865     30.327     19.506
         ROT  0.684E+06              888.752      2.981     29.682
         INT  0.256E+08             4557.617     33.308     49.188
         TR   0.166E+28             1481.254      4.968     40.770
         TOT                        6038.8714    38.2759    89.9573   376.3813

       T/K    H(0)-H(T)+PV         H(T)/Eh          T*S/Eh         G(T)/Eh
   ------------------------------------------------------------------------
    298.15    0.962355E-02    0.168074E+00    0.427416E-01    0.125332E+00
   ------------------------------------------------------------------------

         :::::::::::::::::::::::::::::::::::::::::::::::::::::
         ::                  THERMODYNAMIC                  ::
         :::::::::::::::::::::::::::::::::::::::::::::::::::::
         :: total free energy         -28.790505369905 Eh   ::
         ::.................................................::
         :: total energy              -28.915837328533 Eh   ::
         :: zero point energy           0.158450020943 Eh   ::
         :: G(RRHO) w/o ZPVE           -0.033118062314 Eh   ::
         :: G(RRHO) contrib.            0.125331958628 Eh   ::
         :::::::::::::::::::::::::::::::::::::::::::::::::::::

optimized geometry written to: xtbopt.coord


           -------------------------------------------------
          | TOTAL ENERGY              -28.915837328533 Eh   |
          | TOTAL ENTHALPY            -28.747763753500 Eh   |
          | TOTAL FREE ENERGY         -28.790505369905 Eh   |
          | GRADIENT NORM               0.000059091212 Eh/α |
          | HOMO-LUMO GAP               2.761827650282 eV   |
           -------------------------------------------------

------------------------------------------------------------------------
 * finished run on 2025/04/03 at 20:38:40.264     
------------------------------------------------------------------------
 total:
 * wall-time:     0 d,  0 h,  0 min,  1.446 sec
 *  cpu-time:     0 d,  0 h,  0 min,  1.381 sec
 * ratio c/w:     0.955 speedup
 SCF:
 * wall-time:     0 d,  0 h,  0 min,  0.026 sec
 *  cpu-time:     0 d,  0 h,  0 min,  0.014 sec
 * ratio c/w:     0.544 speedup
 ANC optimizer:
 * wall-time:     0 d,  0 h,  0 min,  0.142 sec
 *  cpu-time:     0 d,  0 h,  0 min,  0.129 sec
 * ratio c/w:     0.915 speedup
 analytical hessian:
 * wall-time:     0 d,  0 h,  0 min,  1.235 sec
 *  cpu-time:     0 d,  0 h,  0 min,  1.226 sec
 * ratio c/w:     0.993 speedup

