      -----------------------------------------------------------      
     |                   =====================                   |     
     |                           x T B                           |     
     |                   =====================                   |     
     |                         S. Grimme                         |     
     |          Mulliken Center for Theoretical Chemistry        |     
     |                    University of Bonn                     |     
      -----------------------------------------------------------      

   * xtb version 6.7.1 (edcfbbe) compiled by 'albert@albert-system' on 2024-07-22

   xtb is free software: you can redistribute it and/or modify it under
   the terms of the GNU Lesser General Public License as published by
   the Free Software Foundation, either version 3 of the License, or
   (at your option) any later version.
   
   xtb is distributed in the hope that it will be useful,
   but WITHOUT ANY WARRANTY; without even the implied warranty of
   MERCHANTABILITY or FITNESS FOR A PARTICULAR PURPOSE.  See the
   GNU Lesser General Public License for more details.
   
   Cite this work as:
   * C. Bannwarth, E. Caldeweyher, S. Ehlert, A. Hansen, P. Pracht,
     J. Seibert, S. Spicher, S. Grimme, WIREs Comput. Mol. Sci., 2020, 11,
     e01493. DOI: 10.1002/wcms.1493
   
   for GFN2-xTB:
   * C. Bannwarth, S. Ehlert and S. Grimme., J. Chem. Theory Comput., 2019,
     15, 1652-1671. DOI: 10.1021/acs.jctc.8b01176
   for GFN1-xTB:
   * S. Grimme, C. Bannwarth, P. Shushkov, J. Chem. Theory Comput., 2017,
     13, 1989-2009. DOI: 10.1021/acs.jctc.7b00118
   for GFN0-xTB:
   * P. Pracht, E. Caldeweyher, S. Ehlert, S. Grimme, ChemRxiv, 2019, preprint.
     DOI: 10.26434/chemrxiv.8326202.v1
   for GFN-FF:
   * S. Spicher and S. Grimme, Angew. Chem. Int. Ed., 2020, 59, 15665-15673.
     DOI: 10.1002/anie.202004239
   
   for ALPB and GBSA implicit solvation:
   * S. Ehlert, M. Stahn, S. Spicher, S. Grimme, J. Chem. Theory Comput.,
     2021, 17, 4250-4261. DOI: 10.1021/acs.jctc.1c00471
   
   for ddCOSMO and CPCM-X implicit solvation:
   * M. Stahn, S. Ehlert, S. Grimme, J. Phys. Chem. A,
     2023, XX, XXXX-XXXX. DOI: 10.1021/acs.jpca.3c04382
   
   for DFT-D4:
   * E. Caldeweyher, C. Bannwarth and S. Grimme, J. Chem. Phys., 2017,
     147, 034112. DOI: 10.1063/1.4993215
   * E. Caldeweyher, S. Ehlert, A. Hansen, H. Neugebauer, S. Spicher,
     C. Bannwarth and S. Grimme, J. Chem. Phys., 2019, 150, 154122.
     DOI: 10.1063/1.5090222
   * E. Caldeweyher, J.-M. Mewes, S. Ehlert and S. Grimme, Phys. Chem. Chem. Phys.
     2020, 22, 8499-8512. DOI: 10.1039/D0CP00502A
   
   for sTDA-xTB:
   * S. Grimme and C. Bannwarth, J. Chem. Phys., 2016, 145, 054103.
     DOI: 10.1063/1.4959605
   
   in the mass-spec context:
   * V. Asgeirsson, C. Bauer and S. Grimme, Chem. Sci., 2017, 8, 4879.
     DOI: 10.1039/c7sc00601b
   * J. Koopman and S. Grimme, ACS Omega 2019, 4, 12, 15120-15133.
     DOI: 10.1021/acsomega.9b02011
   
   for metadynamics refer to:
   * S. Grimme, J. Chem. Theory Comput., 2019, 155, 2847-2862
     DOI: 10.1021/acs.jctc.9b00143
   
   for SPH calculations refer to:
   * S. Spicher and S. Grimme, J. Chem. Theory Comput., 2021, 17, 1701-1714
     DOI: 10.1021/acs.jctc.0c01306
   
   for ONIOM refer to:
   * C. Plett, A. Katbashev, S. Ehlert, S. Grimme, M. Bursch,
     Phys. Chem. Chem. Phys., 2023, 25, 17860-17868. DOI: 10.1039/D3CP02178E
   
   for DIPRO refer to:
   * J. Kohn, N. Gildemeister, S. Grimme, D. Fazzi, A. Hansen,
     J. Chem. Phys., 2023, just accepted.
   
   for PTB refer to:
   * S. Grimme, M. Mueller, A. Hansen, J. Chem. Phys., 2023, 158, 124111.
     DOI: 10.1063/5.0137838
   
   with help from (in alphabetical order)
   P. Atkinson, C. Bannwarth, F. Bohle, G. Brandenburg, E. Caldeweyher
   M. Checinski, S. Dohm, S. Ehlert, S. Ehrlich, I. Gerasimov, C. Hölzer
   A. Katbashev, J. Kohn, J. Koopman, C. Lavigne, S. Lehtola, F. März, M. Müller,
   F. Musil, H. Neugebauer, J. Pisarek, C. Plett, P. Pracht, F. Pultar,
   J. Seibert, P. Shushkov, S. Spicher, M. Stahn, M. Steiner, T. Strunk,
   J. Stückrath, T. Rose, and J. Unsleber
   
 * started run on 2025/04/09 at 14:00:33.424     
   ID    Z sym.   atoms
    1    6 C      1, 2, 7, 8, 10, 15, 16, 18, 19
    2    8 O      3, 6, 14, 17
    3   15 P      4, 12
    4   16 S      5, 9, 11, 13
    5    1 H      20-41

           -------------------------------------------------
          |                Calculation Setup                |
           -------------------------------------------------

          program call               : /srv/scratch/z5358697/.xtb/bin/xtb xtb_rrho.coord --gfn2 --bhess vtight --chrg 0 --enso --norestart -I rrho-xcontrol-inp --parallel 1 --alpb water
          hostname                   : k163
          coordinate file            : xtb_rrho.coord
          omp threads                :                     1


           -------------------------------------------------
          |                 G F N 2 - x T B                 |
           -------------------------------------------------

        Reference                      10.1021/acs.jctc.8b01176
      * Hamiltonian:
        H0-scaling (s, p, d)           1.850000    2.230000    2.230000
        zeta-weighting                 0.500000
      * Dispersion:
        s8                             2.700000
        a1                             0.520000
        a2                             5.000000
        s9                             5.000000
      * Repulsion:
        kExp                           1.500000    1.000000
        rExp                           1.000000
      * Coulomb:
        alpha                          2.000000
        third order                    shell-resolved
        anisotropic                    true
        a3                             3.000000
        a5                             4.000000
        cn-shift                       1.200000
        cn-exp                         4.000000
        max-rad                        5.000000

      * Solvation model:               ALPB
        Solvent                        water
        Parameter file                 internal GFN2-xTB/ALPB
        Dielectric constant                8.0200E+01
        Reference state                gsolv [1 M gas/solution]
        Free energy shift                  1.0808E-03 Eh       6.7819E-01 kcal/mol
        Temperature                        2.9815E+02 K
        Density                            1.0000E+00 kg/L
        Solvent mass                       1.8000E+01 g/mol
        Interaction kernel             P16
        Born radius scaling (c1)           1.4744E+00
        Born radii integrator          GBOBC
        Born offset                        0.0000E+00 a0       0.0000E+00 AA
        H-bond correction              true
        Ion screening                  false
        Surface tension                    1.0000E-05 Eh       1.5569E+01 dyn/cm
        Grid points                               974 per atom

          ...................................................
          :                      SETUP                      :
          :.................................................:
          :  # basis functions                 134          :
          :  # atomic orbitals                 128          :
          :  # shells                           66          :
          :  # electrons                       116          :
          :  max. iterations                   250          :
          :  Hamiltonian                  GFN2-xTB          :
          :  restarted?                      false          :
          :  GBSA solvation                   true          :
          :  PC potential                    false          :
          :  electronic temp.          300.0000000     K    :
          :  accuracy                    1.0000000          :
          :  -> integral cutoff          0.2500000E+02      :
          :  -> integral neglect         0.1000000E-07      :
          :  -> SCF convergence          0.1000000E-05 Eh   :
          :  -> wf. convergence          0.1000000E-03 e    :
          :  Broyden damping             0.4000000          :
          :  net charge                          0          :
          :  unpaired electrons                  0          :
          ...................................................

 iter      E             dE          RMSdq      gap      omega  full diag
   1    -65.4145112 -0.654145E+02  0.645E+00    4.29       0.0  T
   2    -65.5380563 -0.123545E+00  0.367E+00    3.72       1.0  T
   3    -65.5571090 -0.190528E-01  0.109E+00    3.28       1.0  T
   4    -65.5600310 -0.292197E-02  0.507E-01    3.23       1.0  T
   5    -65.5607550 -0.724038E-03  0.263E-01    3.28       1.0  T
   6    -65.5609414 -0.186354E-03  0.119E-01    3.28       1.0  T
   7    -65.5609902 -0.488295E-04  0.415E-02    3.30       1.0  T
   8    -65.5609936 -0.340365E-05  0.173E-02    3.29       1.0  T
   9    -65.5609944 -0.786476E-06  0.479E-03    3.29       3.3  T
  10    -65.5609944 -0.140641E-07  0.245E-03    3.29       6.4  T
  11    -65.5609945 -0.331447E-07  0.676E-04    3.29      23.1  T
  12    -65.5609945 -0.103748E-08  0.397E-04    3.29      39.3  T

   *** convergence criteria satisfied after 12 iterations ***

         #    Occupation            Energy/Eh            Energy/eV
      -------------------------------------------------------------
         1        2.0000           -0.7609027             -20.7052
       ...           ...                  ...                  ...
        52        2.0000           -0.4425674             -12.0429
        53        2.0000           -0.4160238             -11.3206
        54        2.0000           -0.4112524             -11.1907
        55        2.0000           -0.3965868             -10.7917
        56        2.0000           -0.3945599             -10.7365
        57        2.0000           -0.3942040             -10.7268
        58        2.0000           -0.3922832             -10.6746 (HOMO)
        59                         -0.2712563              -7.3813 (LUMO)
        60                         -0.2498178              -6.7979
        61                         -0.2257043              -6.1417
        62                         -0.1913276              -5.2063
        63                         -0.1896107              -5.1596
       ...                                ...                  ...
       128                          1.2612315              34.3199
      -------------------------------------------------------------
                  HL-Gap            0.1210269 Eh            3.2933 eV
             Fermi-level           -0.3317698 Eh           -9.0279 eV

 SCC (total)                   0 d,  0 h,  0 min,  0.081 sec
 SCC setup                      ...        0 min,  0.002 sec (  2.950%)
 Dispersion                     ...        0 min,  0.000 sec (  0.326%)
 classical contributions        ...        0 min,  0.000 sec (  0.060%)
 integral evaluation            ...        0 min,  0.020 sec ( 25.101%)
 iterations                     ...        0 min,  0.037 sec ( 45.411%)
 molecular gradient             ...        0 min,  0.021 sec ( 25.869%)
 printout                       ...        0 min,  0.000 sec (  0.265%)

         :::::::::::::::::::::::::::::::::::::::::::::::::::::
         ::                     SUMMARY                     ::
         :::::::::::::::::::::::::::::::::::::::::::::::::::::
         :: total energy             -65.020940326785 Eh    ::
         :: total w/o Gsasa/hb       -65.022745722049 Eh    ::
         :: gradient norm              0.052561322615 Eh/a0 ::
         :: HOMO-LUMO gap              3.293309470237 eV    ::
         ::.................................................::
         :: SCC energy               -65.559859194805 Eh    ::
         :: -> isotropic ES            0.124826162317 Eh    ::
         :: -> anisotropic ES         -0.014047036027 Eh    ::
         :: -> anisotropic XC          0.031090364870 Eh    ::
         :: -> dispersion             -0.050511363598 Eh    ::
         :: -> Gsolv                  -0.021086125073 Eh    ::
         ::    -> Gelec               -0.022891520337 Eh    ::
         ::    -> Gsasa                0.004910540503 Eh    ::
         ::    -> Ghb                 -0.004185904937 Eh    ::
         ::    -> Gshift               0.001080759698 Eh    ::
         :: repulsion energy           0.538918868019 Eh    ::
         :: add. restraining           0.000000000000 Eh    ::
         :: total charge              -0.000000000000 e     ::
         :::::::::::::::::::::::::::::::::::::::::::::::::::::

metadynamics with 1 initial structures loaded
           -------------------------------------------------
          |           Optimal kpush determination           |
           -------------------------------------------------
      ----------------------------------------------------------- 
     |                   =====================                   |
     |                        A N C O P T                        |
     |                   =====================                   |
     |               Approximate Normal Coordinate               |
     |                Rational Function Optimizer                |
      ----------------------------------------------------------- 
target rmsd / Å         0.100000
unbiased initial rmsd   0.150178
 
iter. min.        max.        rmsd       kpush
      ----------------------------------------------------------- 
     |                   =====================                   |
     |                        A N C O P T                        |
     |                   =====================                   |
     |               Approximate Normal Coordinate               |
     |                Rational Function Optimizer                |
      ----------------------------------------------------------- 
 1    0.000000    1.863636    0.016235   -0.931818
      ----------------------------------------------------------- 
     |                   =====================                   |
     |                        A N C O P T                        |
     |                   =====================                   |
     |               Approximate Normal Coordinate               |
     |                Rational Function Optimizer                |
      ----------------------------------------------------------- 
 2    0.000000    0.931818    0.023354   -0.465909
      ----------------------------------------------------------- 
     |                   =====================                   |
     |                        A N C O P T                        |
     |                   =====================                   |
     |               Approximate Normal Coordinate               |
     |                Rational Function Optimizer                |
      ----------------------------------------------------------- 
 3    0.000000    0.465909    0.034421   -0.232955
      ----------------------------------------------------------- 
     |                   =====================                   |
     |                        A N C O P T                        |
     |                   =====================                   |
     |               Approximate Normal Coordinate               |
     |                Rational Function Optimizer                |
      ----------------------------------------------------------- 
 4    0.000000    0.232955    0.050462   -0.116477
      ----------------------------------------------------------- 
     |                   =====================                   |
     |                        A N C O P T                        |
     |                   =====================                   |
     |               Approximate Normal Coordinate               |
     |                Rational Function Optimizer                |
      ----------------------------------------------------------- 
 5    0.000000    0.116477    0.070180   -0.058239
      ----------------------------------------------------------- 
     |                   =====================                   |
     |                        A N C O P T                        |
     |                   =====================                   |
     |               Approximate Normal Coordinate               |
     |                Rational Function Optimizer                |
      ----------------------------------------------------------- 
 6    0.000000    0.058239    0.090290   -0.029119
      ----------------------------------------------------------- 
     |                   =====================                   |
     |                        A N C O P T                        |
     |                   =====================                   |
     |               Approximate Normal Coordinate               |
     |                Rational Function Optimizer                |
      ----------------------------------------------------------- 
 7    0.000000    0.029119    0.107777   -0.014560
      ----------------------------------------------------------- 
     |                   =====================                   |
     |                        A N C O P T                        |
     |                   =====================                   |
     |               Approximate Normal Coordinate               |
     |                Rational Function Optimizer                |
      ----------------------------------------------------------- 
 8    0.014560    0.029119    0.097970   -0.021839
      ----------------------------------------------------------- 
     |                   =====================                   |
     |                        A N C O P T                        |
     |                   =====================                   |
     |               Approximate Normal Coordinate               |
     |                Rational Function Optimizer                |
      ----------------------------------------------------------- 
 9    0.014560    0.021839    0.102473   -0.018200
      ----------------------------------------------------------- 
     |                   =====================                   |
     |                        A N C O P T                        |
     |                   =====================                   |
     |               Approximate Normal Coordinate               |
     |                Rational Function Optimizer                |
      ----------------------------------------------------------- 
10    0.018200    0.021839    0.100116   -0.020020
final kpush: -0.020020
           -------------------------------------------------
          |            Biased Numerical Hessian             |
           -------------------------------------------------
kpush                :  -0.02002
alpha                :   1.00000
step length          :   0.00500
SCC accuracy         :   0.30000
Hessian scale factor :   1.00000
frozen atoms in %    :   0.00000    0
RMS gradient         :   0.00011
estimated CPU  time      0.18 min
estimated wall time      0.18 min

writing file <hessian>.

 projected vibrational frequencies (cm⁻¹)
eigval :       -0.00    -0.00    -0.00    -0.00     0.00     0.00
eigval :       45.91    48.60    51.75    51.83    71.54    68.73
eigval :       73.82    65.93    74.64    70.24    76.45    89.11
eigval :       91.20   121.79   125.53   133.69   149.92   156.51
eigval :      173.59   182.46   189.75   236.61   231.44   226.39
eigval :      221.32   229.91   233.92   285.96   283.67   306.13
eigval :      321.67   329.23   368.06   389.71   425.65   439.92
eigval :      450.87   459.92   491.36   610.67   632.71   670.05
eigval :      689.46   736.14   745.92   755.88   762.58   801.31
eigval :      819.68   820.11   823.03   828.09   911.43   917.78
eigval :      934.39   939.19  1035.35  1040.50  1049.58  1058.75
eigval :     1094.89  1095.65  1095.51  1096.29  1093.99  1123.85
eigval :     1132.21  1133.96  1141.08  1172.18  1227.37  1236.76
eigval :     1239.76  1243.40  1297.68  1307.90  1313.35  1314.78
eigval :     1346.93  1392.62  1392.53  1395.05  1397.21  1435.17
eigval :     1436.60  1438.53  1453.45  1458.97  1460.58  1462.69
eigval :     1463.52  1474.02  1477.11  1477.19  1480.19  2924.43
eigval :     2925.68  2928.60  2939.09  2961.90  2966.83  2967.69
eigval :     2977.15  2980.22  2981.92  3018.42  3018.88  3027.99
eigval :     3047.09  3047.76  3048.15  3049.18  3051.22  3055.44
eigval :     3056.73  3057.46  3063.54
           -------------------------------------------------
          |                Property Printout                |
           -------------------------------------------------

    * Orbital Energies and Occupations

         #    Occupation            Energy/Eh            Energy/eV
      -------------------------------------------------------------
         1        2.0000           -0.7659167             -20.8417
       ...           ...                  ...                  ...
        46        2.0000           -0.4659120             -12.6781
        47        2.0000           -0.4578058             -12.4575
        48        2.0000           -0.4567187             -12.4279
        49        2.0000           -0.4534178             -12.3381
        50        2.0000           -0.4511551             -12.2766
        51        2.0000           -0.4490875             -12.2203
        52        2.0000           -0.4427174             -12.0470
        53        2.0000           -0.4173805             -11.3575
        54        2.0000           -0.4101631             -11.1611
        55        2.0000           -0.3950932             -10.7510
        56        2.0000           -0.3938912             -10.7183
        57        2.0000           -0.3930087             -10.6943
        58        2.0000           -0.3902210             -10.6185 (HOMO)
        59                         -0.2716659              -7.3924 (LUMO)
        60                         -0.2535928              -6.9006
        61                         -0.2192377              -5.9658
        62                         -0.1853880              -5.0447
        63                         -0.1836963              -4.9986
        64                         -0.1734023              -4.7185
        65                         -0.1666938              -4.5360
        66                         -0.1532090              -4.1690
        67                         -0.1355143              -3.6875
        68                         -0.1230283              -3.3478
        69                         -0.0491335              -1.3370
       ...                                ...                  ...
       128                          1.2569061              34.2022
      -------------------------------------------------------------
                  HL-Gap            0.1185551 Eh            3.2260 eV
             Fermi-level           -0.3309434 Eh           -9.0054 eV

     #   Z          covCN         q      C6AA      α(0)
     1   6 C        3.751    -0.132    23.104     6.855
     2   6 C        3.827     0.070    19.397     6.267
     3   8 O        1.653    -0.262    18.360     5.784
     4  15 P        3.803     0.382   144.376    21.584
     5  16 S        0.927    -0.464   159.664    21.372
     6   8 O        1.655    -0.254    18.230     5.764
     7   6 C        3.849     0.081    19.208     6.234
     8   6 C        3.751    -0.127    23.002     6.840
     9  16 S        2.003    -0.148   147.291    20.426
    10   6 C        3.814     0.037    19.942     6.356
    11  16 S        2.002    -0.130   146.528    20.373
    12  15 P        3.858     0.379   144.476    21.592
    13  16 S        0.926    -0.479   160.398    21.421
    14   8 O        1.655    -0.254    18.228     5.763
    15   6 C        3.855     0.074    19.315     6.251
    16   6 C        3.751    -0.129    23.035     6.845
    17   8 O        1.655    -0.258    18.290     5.773
    18   6 C        3.864     0.077    19.261     6.241
    19   6 C        3.751    -0.127    23.007     6.840
    20   1 H        0.925     0.069     2.096     2.264
    21   1 H        0.925     0.092     1.860     2.133
    22   1 H        0.925     0.065     2.140     2.288
    23   1 H        0.924     0.096     1.824     2.112
    24   1 H        0.924     0.078     2.000     2.212
    25   1 H        0.924     0.082     1.955     2.187
    26   1 H        0.924     0.053     2.288     2.365
    27   1 H        0.925     0.079     1.984     2.203
    28   1 H        0.925     0.058     2.222     2.331
    29   1 H        0.925     0.076     2.021     2.223
    30   1 H        0.925     0.093     1.852     2.128
    31   1 H        0.925     0.096     1.826     2.113
    32   1 H        0.924     0.064     2.151     2.294
    33   1 H        0.924     0.094     1.839     2.121
    34   1 H        0.925     0.070     2.087     2.259
    35   1 H        0.925     0.052     2.290     2.367
    36   1 H        0.925     0.084     1.936     2.176
    37   1 H        0.924     0.064     2.155     2.296
    38   1 H        0.924     0.091     1.869     2.138
    39   1 H        0.925     0.074     2.046     2.237
    40   1 H        0.925     0.052     2.294     2.369
    41   1 H        0.925     0.084     1.939     2.177

 Mol. C6AA /au·bohr⁶  :      26397.039828
 Mol. C8AA /au·bohr⁸  :     862608.312186
 Mol. α(0) /au        :        257.574359


Wiberg/Mayer (AO) data.
largest (>0.10) Wiberg bond orders for each atom

 ---------------------------------------------------------------------------
     #   Z sym  total        # sym  WBO       # sym  WBO       # sym  WBO
 ---------------------------------------------------------------------------
     1   6 C    3.985 --     2 C    1.025    20 H    0.982    21 H    0.973
                            22 H    0.972
     2   6 C    3.878 --     1 C    1.025    24 H    0.970    23 H    0.964
                             3 O    0.860
     3   8 O    2.399 --     4 P    1.361     2 C    0.860
     4  15 P    5.283 --     5 S    1.531     3 O    1.361     6 O    1.315
                             9 S    0.944
     5  16 S    1.862 --     4 P    1.531     9 S    0.142
     6   8 O    2.412 --     4 P    1.315     7 C    0.888
     7   6 C    3.892 --     8 C    1.020    25 H    0.968    26 H    0.967
                             6 O    0.888
     8   6 C    3.984 --     7 C    1.020    29 H    0.982    28 H    0.979
                            27 H    0.977
     9  16 S    2.279 --    10 C    0.993     4 P    0.944     5 S    0.142
    10   6 C    3.953 --     9 S    0.993    11 S    0.984    30 H    0.954
                            31 H    0.945
    11  16 S    2.286 --    12 P    0.987    10 C    0.984    13 S    0.132
    12  15 P    5.289 --    13 S    1.508    14 O    1.324    17 O    1.321
                            11 S    0.987
    13  16 S    1.835 --    12 P    1.508    11 S    0.132
    14   8 O    2.413 --    12 P    1.324    15 C    0.889
    15   6 C    3.891 --    16 C    1.022    32 H    0.968    33 H    0.964
                            14 O    0.889
    16   6 C    3.987 --    15 C    1.022    34 H    0.982    35 H    0.977
                            36 H    0.976
    17   8 O    2.398 --    12 P    1.321    18 C    0.877
    18   6 C    3.890 --    19 C    1.023    37 H    0.967    38 H    0.965
                            17 O    0.877
    19   6 C    3.987 --    18 C    1.023    39 H    0.982    40 H    0.977
                            41 H    0.976
    20   1 H    0.995 --     1 C    0.982
    21   1 H    0.990 --     1 C    0.973
    22   1 H    0.996 --     1 C    0.972
    23   1 H    0.990 --     2 C    0.964
    24   1 H    0.994 --     2 C    0.970
    25   1 H    0.993 --     7 C    0.968
    26   1 H    0.997 --     7 C    0.967
    27   1 H    0.993 --     8 C    0.977
    28   1 H    0.997 --     8 C    0.979
    29   1 H    0.994 --     8 C    0.982
    30   1 H    0.991 --    10 C    0.954
    31   1 H    0.990 --    10 C    0.945
    32   1 H    0.996 --    15 C    0.968
    33   1 H    0.991 --    15 C    0.964
    34   1 H    0.995 --    16 C    0.982
    35   1 H    0.997 --    16 C    0.977
    36   1 H    0.992 --    16 C    0.976
    37   1 H    0.996 --    18 C    0.967
    38   1 H    0.991 --    18 C    0.965
    39   1 H    0.995 --    19 C    0.982
    40   1 H    0.997 --    19 C    0.977
    41   1 H    0.992 --    19 C    0.976
 ---------------------------------------------------------------------------

Topologies differ in total number of bonds
Writing topology from bond orders to xtbtopo.mol

molecular dipole:
                 x           y           z       tot (Debye)
 q only:       -1.199      -3.165       1.556
   full:       -0.898      -3.193       1.547       9.303
molecular quadrupole (traceless):
                xx          xy          yy          xz          yz          zz
 q only:        0.470     -26.585       7.280     -18.534       5.313      -7.750
  q+dip:        3.909     -26.372       2.050     -18.341       0.756      -5.959
   full:        4.978     -26.267       2.621     -19.009       2.391      -7.599

           -------------------------------------------------
          |                Geometry Summary                 |
           -------------------------------------------------

      molecular mass/u    :      384.4756129
   center of mass at/Å    :        0.0094227       0.0095551      -0.0077064
  moments of inertia/u·Å² :        0.1335572E+04   0.3568467E+04   0.3913799E+04
rotational constants/cm⁻¹ :        0.1262203E-01   0.4724055E-02   0.4307230E-02

 * 38 selected distances

     #   Z          #   Z                                           value/Å
     1   6 C        2   6 C                                       1.5132184
     2   6 C        3   8 O                                       1.4508124
     3   8 O        4  15 P                                       1.5726013
     4  15 P        5  16 S                                       1.9585840
     4  15 P        6   8 O                                       1.5925803
     6   8 O        7   6 C                                       1.4400813
     7   6 C        8   6 C                                       1.5161627
     4  15 P        9  16 S                                       2.1441885 (max)
    11  16 S       12  15 P                                       2.1126653
    12  15 P       13  16 S                                       1.9652446
    12  15 P       14   8 O                                       1.5888221
    14   8 O       15   6 C                                       1.4376985
    15   6 C       16   6 C                                       1.5153771
    12  15 P       17   8 O                                       1.5845040
    17   8 O       18   6 C                                       1.4432510
    18   6 C       19   6 C                                       1.5145518
     1   6 C       20   1 H                                       1.0870392
     1   6 C       21   1 H                                       1.0857244
     1   6 C       22   1 H                                       1.0884435
     2   6 C       23   1 H                                       1.0909667
     2   6 C       24   1 H                                       1.0914027
     7   6 C       25   1 H                                       1.0920794
     7   6 C       26   1 H                                       1.0948720
     8   6 C       27   1 H                                       1.0851574 (min)
     8   6 C       28   1 H                                       1.0875579
     8   6 C       29   1 H                                       1.0864179
    10   6 C       30   1 H                                       1.0899804
    10   6 C       31   1 H                                       1.0917968
    15   6 C       32   1 H                                       1.0949017
    15   6 C       33   1 H                                       1.0909886
    16   6 C       34   1 H                                       1.0869416
    16   6 C       35   1 H                                       1.0892697
    16   6 C       36   1 H                                       1.0857227
    18   6 C       37   1 H                                       1.0945731
    18   6 C       38   1 H                                       1.0906895
    19   6 C       39   1 H                                       1.0867280
    19   6 C       40   1 H                                       1.0891972
    19   6 C       41   1 H                                       1.0857952

 * 5 distinct bonds (by element types)

   Z      Z             #   av. dist./Å        max./Å        min./Å
   1 H    6 C          22     1.0893748     1.0949017     1.0851574
   6 C    6 C           4     1.5148275     1.5161627     1.5132184
   6 C    8 O           4     1.4429608     1.4508124     1.4376985
   8 O   15 P           4     1.5846269     1.5925803     1.5726013
  15 P   16 S           4     2.0451706     2.1441885     1.9585840

           -------------------------------------------------
          |               Frequency Printout                |
           -------------------------------------------------
 projected vibrational frequencies (cm⁻¹)
eigval :       -0.00    -0.00    -0.00    -0.00     0.00     0.00
eigval :       45.91    48.60    51.75    51.83    71.54    68.73
eigval :       73.82    65.93    74.64    70.24    76.45    89.11
eigval :       91.20   121.79   125.53   133.69   149.92   156.51
eigval :      173.59   182.46   189.75   236.61   231.44   226.39
eigval :      221.32   229.91   233.92   285.96   283.67   306.13
eigval :      321.67   329.23   368.06   389.71   425.65   439.92
eigval :      450.87   459.92   491.36   610.67   632.71   670.05
eigval :      689.46   736.14   745.92   755.88   762.58   801.31
eigval :      819.68   820.11   823.03   828.09   911.43   917.78
eigval :      934.39   939.19  1035.35  1040.50  1049.58  1058.75
eigval :     1094.89  1095.65  1095.51  1096.29  1093.99  1123.85
eigval :     1132.21  1133.96  1141.08  1172.18  1227.37  1236.76
eigval :     1239.76  1243.40  1297.68  1307.90  1313.35  1314.78
eigval :     1346.93  1392.62  1392.53  1395.05  1397.21  1435.17
eigval :     1436.60  1438.53  1453.45  1458.97  1460.58  1462.69
eigval :     1463.52  1474.02  1477.11  1477.19  1480.19  2924.43
eigval :     2925.68  2928.60  2939.09  2961.90  2966.83  2967.69
eigval :     2977.15  2980.22  2981.92  3018.42  3018.88  3027.99
eigval :     3047.09  3047.76  3048.15  3049.18  3051.22  3055.44
eigval :     3056.73  3057.46  3063.54
 reduced masses (amu)
   1: 17.39   2: 22.33   3: 19.28   4: 20.10   5: 17.48   6: 22.77   7: 24.29   8: 23.78
   9: 20.69  10: 16.97  11: 23.35  12: 15.61  13: 18.30  14: 12.51  15: 13.89  16: 10.93
  17: 11.24  18: 12.59  19: 10.93  20: 12.89  21: 12.68  22: 14.75  23: 17.28  24: 19.21
  25: 19.93  26: 18.50  27: 14.83  28: 19.37  29: 17.25  30: 10.72  31:  4.53  32:  4.49
  33:  4.66  34: 17.42  35: 14.12  36: 18.60  37: 16.08  38: 16.10  39: 15.57  40: 21.18
  41: 19.78  42: 19.49  43: 16.16  44: 14.19  45: 17.64  46: 25.75  47: 24.31  48: 18.45
  49: 17.00  50: 19.79  51: 18.78  52: 22.32  53: 22.75  54:  5.89  55:  2.80  56:  2.55
  57:  2.83  58:  3.09  59: 12.62  60: 13.62  61: 11.12  62: 11.65  63:  8.37  64:  8.51
  65:  9.66  66:  9.81  67:  7.86  68:  7.90  69:  7.81  70:  7.75  71:  1.46  72:  5.03
  73:  5.22  74:  5.30  75:  5.33  76:  2.27  77:  2.48  78:  2.33  79:  2.30  80:  2.24
  81:  3.09  82:  3.08  83:  3.05  84:  3.11  85:  1.75  86:  3.09  87:  3.11  88:  3.10
  89:  3.09  90:  1.99  91:  1.94  92:  1.95  93:  1.87  94:  1.49  95:  1.51  96:  1.50
  97:  1.50  98:  1.56  99:  1.56 100:  1.56 101:  1.57 102:  1.74 103:  1.78 104:  1.74
 105:  1.63 106:  1.77 107:  1.69 108:  1.90 109:  1.72 110:  1.73 111:  1.73 112:  1.77
 113:  1.76 114:  1.78 115:  1.64 116:  1.62 117:  1.61 118:  1.91 119:  1.49 120:  1.80
 121:  1.77 122:  1.77 123:  1.76
 IR intensities (km·mol⁻¹)
   1:  1.72   2:  0.05   3:  0.75   4:  0.53   5:  0.25   6:  0.37   7:  1.24   8:  5.13
   9:  4.10  10:  0.69  11:  0.44  12:  1.65  13:  2.11  14:  5.16  15:  4.44  16:  0.81
  17:  0.33  18:  1.48  19:  2.74  20:  2.87  21:  5.72  22:  8.97  23:  7.88  24:  7.73
  25:  7.97  26: 21.94  27:  3.67  28: 16.77  29: 16.64  30:  8.07  31:  1.78  32:  0.40
  33:  3.47  34: 15.71  35:  7.37  36:  7.17  37: 15.50  38:  5.65  39:  6.23  40: 17.02
  41: 72.82  42:209.88  43:  4.11  44: 17.02  45:128.54  46:197.00  47:114.94  48:  8.93
  49: 44.75  50:216.94  51:171.82  52:234.06  53:332.56  54:  8.30  55:  5.11  56:  0.54
  57:  5.28  58:  4.80  59:364.09  60:245.17  61:115.50  62:148.99  63:214.10  64:175.52
  65:118.91  66:138.29  67:  0.13  68: 20.02  69:  8.86  70: 14.22  71:  1.53  72: 11.20
  73: 25.64  74: 13.82  75: 26.17  76: 48.61  77:  1.42  78:  4.08  79:  2.88  80:  7.24
  81:  4.54  82:  5.13  83:  4.57  84:  1.58  85:  5.05  86: 15.44  87:  9.88  88: 12.89
  89:  8.73  90:  3.09  91:  7.36  92:  3.28  93:  3.04  94: 12.24  95:  5.11  96:  9.48
  97: 10.07  98:  9.50  99:  6.69 100:  1.68 101:  1.07 102: 28.43 103: 26.46 104: 24.13
 105: 29.43 106: 18.20 107: 16.30 108: 26.95 109:  7.57 110:  7.45 111:  6.68 112: 54.35
 113: 51.87 114: 49.03 115: 19.08 116: 32.89 117: 11.79 118: 17.58 119: 16.53 120: 10.33
 121: 12.40 122: 10.34 123: 10.03
 Raman intensities (Ä⁴*amu⁻¹)
   1:  0.00   2:  0.00   3:  0.00   4:  0.00   5:  0.00   6:  0.00   7:  0.00   8:  0.00
   9:  0.00  10:  0.00  11:  0.00  12:  0.00  13:  0.00  14:  0.00  15:  0.00  16:  0.00
  17:  0.00  18:  0.00  19:  0.00  20:  0.00  21:  0.00  22:  0.00  23:  0.00  24:  0.00
  25:  0.00  26:  0.00  27:  0.00  28:  0.00  29:  0.00  30:  0.00  31:  0.00  32:  0.00
  33:  0.00  34:  0.00  35:  0.00  36:  0.00  37:  0.00  38:  0.00  39:  0.00  40:  0.00
  41:  0.00  42:  0.00  43:  0.00  44:  0.00  45:  0.00  46:  0.00  47:  0.00  48:  0.00
  49:  0.00  50:  0.00  51:  0.00  52:  0.00  53:  0.00  54:  0.00  55:  0.00  56:  0.00
  57:  0.00  58:  0.00  59:  0.00  60:  0.00  61:  0.00  62:  0.00  63:  0.00  64:  0.00
  65:  0.00  66:  0.00  67:  0.00  68:  0.00  69:  0.00  70:  0.00  71:  0.00  72:  0.00
  73:  0.00  74:  0.00  75:  0.00  76:  0.00  77:  0.00  78:  0.00  79:  0.00  80:  0.00
  81:  0.00  82:  0.00  83:  0.00  84:  0.00  85:  0.00  86:  0.00  87:  0.00  88:  0.00
  89:  0.00  90:  0.00  91:  0.00  92:  0.00  93:  0.00  94:  0.00  95:  0.00  96:  0.00
  97:  0.00  98:  0.00  99:  0.00 100:  0.00 101:  0.00 102:  0.00 103:  0.00 104:  0.00
 105:  0.00 106:  0.00 107:  0.00 108:  0.00 109:  0.00 110:  0.00 111:  0.00 112:  0.00
 113:  0.00 114:  0.00 115:  0.00 116:  0.00 117:  0.00 118:  0.00 119:  0.00 120:  0.00
 121:  0.00 122:  0.00 123:  0.00
 output can be read by thermo (or use thermo option).
 writing <g98.out> molden fake output.
 recommended (thermochemical) frequency scaling factor: 1.0
           -------------------------------------------------
          |             Thermodynamic Functions             |
           -------------------------------------------------

Molecule has no symmetry elements
It seems to be the C1 point group
c1  symmetry found (for desy threshold:  0.10E+00) used in thermo

          ...................................................
          :                      SETUP                      :
          :.................................................:
          :  # frequencies                         117      :
          :  # imaginary freq.                       0      :
          :  linear?                             false      :
          :  only rotor calc.                    false      :
          :  symmetry                               c1      :
          :  rotational number                       1      :
          :  scaling factor                  1.0000000      :
          :  rotor cutoff                    0.0000000 cm⁻¹ :
          :  imag. cutoff                 -100.0000000 cm⁻¹ :
          :.................................................:

    mode    ω/cm⁻¹     T·S(HO)/kcal·mol⁻¹    T·S(FR)/kcal·mol⁻¹   T·S(vib)
   ------------------------------------------------------------------------
       1     45.91    -1.48665 (100.00%)    -1.08180 (  0.00%)    -1.48665
       2     48.60    -1.45306 (100.00%)    -1.06493 (  0.00%)    -1.45306
       3     51.75    -1.41601 (100.00%)    -1.04632 (  0.00%)    -1.41601
       4     51.83    -1.41510 (100.00%)    -1.04586 (  0.00%)    -1.41510
       5     71.54    -1.22552 (100.00%)    -0.95038 (  0.00%)    -1.22552
       6     68.73    -1.24907 (100.00%)    -0.96228 (  0.00%)    -1.24907
       7     73.82    -1.20713 (100.00%)    -0.94110 (  0.00%)    -1.20713
       8     65.93    -1.27354 (100.00%)    -0.97461 (  0.00%)    -1.27354
       9     74.64    -1.20070 (100.00%)    -0.93785 (  0.00%)    -1.20070
      10     70.24    -1.23628 (100.00%)    -0.95582 (  0.00%)    -1.23628
      11     76.45    -1.18666 (100.00%)    -0.93075 (  0.00%)    -1.18666
      12     89.11    -1.09701 (100.00%)    -0.88533 (  0.00%)    -1.09701
      13     91.20    -1.08354 (100.00%)    -0.87849 (  0.00%)    -1.08354
      14    121.79    -0.91583 (100.00%)    -0.79279 (  0.00%)    -0.91583
      15    125.53    -0.89844 (100.00%)    -0.78384 (  0.00%)    -0.89844
      16    133.69    -0.86231 (100.00%)    -0.76518 (  0.00%)    -0.86231
      17    149.92    -0.79701 (100.00%)    -0.73123 (  0.00%)    -0.79701
      18    156.51    -0.77269 (100.00%)    -0.71851 (  0.00%)    -0.77269
      19    173.59    -0.71443 (100.00%)    -0.68781 (  0.00%)    -0.71443
      20    182.46    -0.68665 (100.00%)    -0.67305 (  0.00%)    -0.68665
      21    189.75    -0.66496 (100.00%)    -0.66145 (  0.00%)    -0.66496
      22    236.61    -0.54509 (100.00%)    -0.59607 (  0.00%)    -0.54509
      23    231.44    -0.55687 (100.00%)    -0.60262 (  0.00%)    -0.55687
      24    226.39    -0.56870 (100.00%)    -0.60915 (  0.00%)    -0.56870
      25    221.32    -0.58088 (100.00%)    -0.61586 (  0.00%)    -0.58088
      26    229.91    -0.56042 (100.00%)    -0.60458 (  0.00%)    -0.56042
      27    233.92    -0.55117 (100.00%)    -0.59945 (  0.00%)    -0.55117
      28    285.96    -0.44656 (100.00%)    -0.53995 (  0.00%)    -0.44656
      29    283.67    -0.45063 (100.00%)    -0.54233 (  0.00%)    -0.45063
   ------------------------------------------------------------------------

   temp. (K)  partition function   enthalpy   heat capacity  entropy
                                   cal/mol     cal/K/mol   cal/K/mol   J/K/mol
 298.15  VIB  0.758E+12            15472.984     88.150    106.257
         ROT  0.104E+08              888.752      2.981     35.096
         INT  0.791E+19            16361.736     91.131    141.353
         TR   0.729E+28             1481.254      4.968     43.712
         TOT                       17842.9901    96.0989   185.0657   774.3147

       T/K    H(0)-H(T)+PV         H(T)/Eh          T*S/Eh         G(T)/Eh
   ------------------------------------------------------------------------
    298.15    0.284346E-01    0.341741E+00    0.879307E-01    0.253811E+00
   ------------------------------------------------------------------------

         :::::::::::::::::::::::::::::::::::::::::::::::::::::
         ::                  THERMODYNAMIC                  ::
         :::::::::::::::::::::::::::::::::::::::::::::::::::::
         :: total free energy         -64.794368440971 Eh   ::
         ::.................................................::
         :: total energy              -65.048179004976 Eh   ::
         :: zero point energy           0.313306611558 Eh   ::
         :: G(RRHO) w/o ZPVE           -0.059496047553 Eh   ::
         :: G(RRHO) contrib.            0.253810564005 Eh   ::
         :::::::::::::::::::::::::::::::::::::::::::::::::::::

optimized geometry written to: xtbopt.coord


           -------------------------------------------------
          | TOTAL ENERGY              -65.048179004976 Eh   |
          | TOTAL ENTHALPY            -64.706437778737 Eh   |
          | TOTAL FREE ENERGY         -64.794368440971 Eh   |
          | GRADIENT NORM               0.000106687180 Eh/α |
          | HOMO-LUMO GAP               3.226047212126 eV   |
           -------------------------------------------------

------------------------------------------------------------------------
 * finished run on 2025/04/09 at 14:00:53.961     
------------------------------------------------------------------------
 total:
 * wall-time:     0 d,  0 h,  0 min, 20.536 sec
 *  cpu-time:     0 d,  0 h,  0 min, 20.265 sec
 * ratio c/w:     0.987 speedup
 SCF:
 * wall-time:     0 d,  0 h,  0 min,  0.081 sec
 *  cpu-time:     0 d,  0 h,  0 min,  0.052 sec
 * ratio c/w:     0.639 speedup
 analytical hessian:
 * wall-time:     0 d,  0 h,  0 min, 10.510 sec
 *  cpu-time:     0 d,  0 h,  0 min, 10.465 sec
 * ratio c/w:     0.996 speedup

