      -----------------------------------------------------------      
     |                   =====================                   |     
     |                           x T B                           |     
     |                   =====================                   |     
     |                         S. Grimme                         |     
     |          Mulliken Center for Theoretical Chemistry        |     
     |                    University of Bonn                     |     
      -----------------------------------------------------------      

   * xtb version 6.7.1 (edcfbbe) compiled by 'albert@albert-system' on 2024-07-22

   xtb is free software: you can redistribute it and/or modify it under
   the terms of the GNU Lesser General Public License as published by
   the Free Software Foundation, either version 3 of the License, or
   (at your option) any later version.
   
   xtb is distributed in the hope that it will be useful,
   but WITHOUT ANY WARRANTY; without even the implied warranty of
   MERCHANTABILITY or FITNESS FOR A PARTICULAR PURPOSE.  See the
   GNU Lesser General Public License for more details.
   
   Cite this work as:
   * C. Bannwarth, E. Caldeweyher, S. Ehlert, A. Hansen, P. Pracht,
     J. Seibert, S. Spicher, S. Grimme, WIREs Comput. Mol. Sci., 2020, 11,
     e01493. DOI: 10.1002/wcms.1493
   
   for GFN2-xTB:
   * C. Bannwarth, S. Ehlert and S. Grimme., J. Chem. Theory Comput., 2019,
     15, 1652-1671. DOI: 10.1021/acs.jctc.8b01176
   for GFN1-xTB:
   * S. Grimme, C. Bannwarth, P. Shushkov, J. Chem. Theory Comput., 2017,
     13, 1989-2009. DOI: 10.1021/acs.jctc.7b00118
   for GFN0-xTB:
   * P. Pracht, E. Caldeweyher, S. Ehlert, S. Grimme, ChemRxiv, 2019, preprint.
     DOI: 10.26434/chemrxiv.8326202.v1
   for GFN-FF:
   * S. Spicher and S. Grimme, Angew. Chem. Int. Ed., 2020, 59, 15665-15673.
     DOI: 10.1002/anie.202004239
   
   for ALPB and GBSA implicit solvation:
   * S. Ehlert, M. Stahn, S. Spicher, S. Grimme, J. Chem. Theory Comput.,
     2021, 17, 4250-4261. DOI: 10.1021/acs.jctc.1c00471
   
   for ddCOSMO and CPCM-X implicit solvation:
   * M. Stahn, S. Ehlert, S. Grimme, J. Phys. Chem. A,
     2023, XX, XXXX-XXXX. DOI: 10.1021/acs.jpca.3c04382
   
   for DFT-D4:
   * E. Caldeweyher, C. Bannwarth and S. Grimme, J. Chem. Phys., 2017,
     147, 034112. DOI: 10.1063/1.4993215
   * E. Caldeweyher, S. Ehlert, A. Hansen, H. Neugebauer, S. Spicher,
     C. Bannwarth and S. Grimme, J. Chem. Phys., 2019, 150, 154122.
     DOI: 10.1063/1.5090222
   * E. Caldeweyher, J.-M. Mewes, S. Ehlert and S. Grimme, Phys. Chem. Chem. Phys.
     2020, 22, 8499-8512. DOI: 10.1039/D0CP00502A
   
   for sTDA-xTB:
   * S. Grimme and C. Bannwarth, J. Chem. Phys., 2016, 145, 054103.
     DOI: 10.1063/1.4959605
   
   in the mass-spec context:
   * V. Asgeirsson, C. Bauer and S. Grimme, Chem. Sci., 2017, 8, 4879.
     DOI: 10.1039/c7sc00601b
   * J. Koopman and S. Grimme, ACS Omega 2019, 4, 12, 15120-15133.
     DOI: 10.1021/acsomega.9b02011
   
   for metadynamics refer to:
   * S. Grimme, J. Chem. Theory Comput., 2019, 155, 2847-2862
     DOI: 10.1021/acs.jctc.9b00143
   
   for SPH calculations refer to:
   * S. Spicher and S. Grimme, J. Chem. Theory Comput., 2021, 17, 1701-1714
     DOI: 10.1021/acs.jctc.0c01306
   
   for ONIOM refer to:
   * C. Plett, A. Katbashev, S. Ehlert, S. Grimme, M. Bursch,
     Phys. Chem. Chem. Phys., 2023, 25, 17860-17868. DOI: 10.1039/D3CP02178E
   
   for DIPRO refer to:
   * J. Kohn, N. Gildemeister, S. Grimme, D. Fazzi, A. Hansen,
     J. Chem. Phys., 2023, just accepted.
   
   for PTB refer to:
   * S. Grimme, M. Mueller, A. Hansen, J. Chem. Phys., 2023, 158, 124111.
     DOI: 10.1063/5.0137838
   
   with help from (in alphabetical order)
   P. Atkinson, C. Bannwarth, F. Bohle, G. Brandenburg, E. Caldeweyher
   M. Checinski, S. Dohm, S. Ehlert, S. Ehrlich, I. Gerasimov, C. Hölzer
   A. Katbashev, J. Kohn, J. Koopman, C. Lavigne, S. Lehtola, F. März, M. Müller,
   F. Musil, H. Neugebauer, J. Pisarek, C. Plett, P. Pracht, F. Pultar,
   J. Seibert, P. Shushkov, S. Spicher, M. Stahn, M. Steiner, T. Strunk,
   J. Stückrath, T. Rose, and J. Unsleber
   
 * started run on 2025/04/10 at 17:12:28.586     
   ID    Z sym.   atoms
    1    6 C      1, 2, 7, 8, 10, 15, 16, 18, 19
    2    8 O      3, 6, 14, 17
    3   15 P      4, 12
    4   16 S      5, 9, 11, 13
    5    1 H      20-41

           -------------------------------------------------
          |                Calculation Setup                |
           -------------------------------------------------

          program call               : /srv/scratch/z5358697/.xtb/bin/xtb xtb_opt.coord --opt normal --orca -I xtb_opt-xcontrol-inp
          hostname                   : k163
          coordinate file            : xtb_opt.coord
          omp threads                :                    24

           -------------------------------------------------
          |                   Orca driver                   |
           -------------------------------------------------
orca executable           : /apps/z_install_tree/linux-rocky8-ivybridge/gcc-12.2.0/orca-6.0.0-srtngmq3qlimg2qxbl6avaaiffipurdx/bin/orca
orca input file           : xtb_opt.inp
orca input line           : 
orca parallel             : true
orca number of threads    : 24
                         * ORCA takes the control...
  ------------------------------------------------------------------------

                                 *****************
                                 * O   R   C   A *
                                 *****************

                                            #,                                       
                                            ###                                      
                                            ####                                     
                                            #####                                    
                                            ######                                   
                                           ########,                                 
                                     ,,################,,,,,                         
                               ,,#################################,,                 
                          ,,##########################################,,             
                       ,#########################################, ''#####,          
                    ,#############################################,,   '####,        
                  ,##################################################,,,,####,       
                ,###########''''           ''''###############################       
              ,#####''   ,,,,##########,,,,          '''####'''          '####       
            ,##' ,,,,###########################,,,                        '##       
           ' ,,###''''                  '''############,,,                           
         ,,##''                                '''############,,,,        ,,,,,,###''
      ,#''                                            '''#######################'''  
     '                                                          ''''####''''         
             ,#######,   #######,   ,#######,      ##                                
            ,#'     '#,  ##    ##  ,#'     '#,    #''#        ,####,   ,####,        
            ##       ##  ##   ,#'  ##            #'  '#       #'       #'  '#        
            ##       ##  #######   ##           ,######,      #####,   #    #        
            '#,     ,#'  ##    ##  '#,     ,#' ,#      #,     #,   #   #,  ,#        
             '#######'   ##     ##  '#######'  #'      '#     '####' # '####'        



                #########################################################
                #                        -***-                          #
                #          Department of theory and spectroscopy        #
                #                                                       #
                #                      Frank Neese                      #
                #                                                       #
                #     Directorship, Architecture, Infrastructure        #
                #                    SHARK, DRIVERS                     #
                #        Core code/Algorithms in most modules           #
                #                                                       #
                #        Max Planck Institute fuer Kohlenforschung      #
                #                Kaiser Wilhelm Platz 1                 #
                #                 D-45470 Muelheim/Ruhr                 #
                #                      Germany                          #
                #                                                       #
                #                  All rights reserved                  #
                #                        -***-                          #
                #########################################################


                         Program Version 6.0.0  -   RELEASE  -


 With contributions from (in alphabetic order):
   Daniel Aravena         : Magnetic Suceptibility
   Michael Atanasov       : Ab Initio Ligand Field Theory (pilot matlab implementation)
   Alexander A. Auer      : GIAO ZORA, VPT2 properties, NMR spectrum
   Ute Becker             : All parallelization in ORCA, NUMFREQ, NUMCALC
   Giovanni Bistoni       : ED, misc. LED, open-shell LED, HFLD
   Martin Brehm           : Molecular dynamics
   Dmytro Bykov           : pre 5.0 version of the SCF Hessian
   Marcos Casanova-Páez   : Triplet and SCS-CIS(D). UHF-(DLPNO)-IP/EA/STEOM-CCSD. UHF-CVS-IP/STEOM-CCSD
   Vijay G. Chilkuri      : MRCI spin determinant printing, contributions to CSF-ICE
   Pauline Colinet        : FMM embedding
   Dipayan Datta          : RHF DLPNO-CCSD density
   Achintya Kumar Dutta   : EOM-CC, STEOM-CC
   Nicolas Foglia         : Exact transition moments, OPA infrastructure, MCD improvements
   Dmitry Ganyushin       : Spin-Orbit,Spin-Spin,Magnetic field MRCI
   Miquel Garcia          : C-PCM and meta-GGA Hessian, CCSD/C-PCM, Gaussian charge scheme
   Tiago L. C. Gouveia    : GS-ROHF, GS-ROCIS
   Yang Guo               : DLPNO-NEVPT2, F12-NEVPT2, CIM, IAO-localization
   Andreas Hansen         : Spin unrestricted coupled pair/coupled cluster methods
   Ingolf Harden          : AUTO-CI MPn and infrastructure 
   Benjamin Helmich-Paris : MC-RPA, TRAH-(SCF,CASSCF), AVAS, COSX integrals, SCF dyn. polar.
   Lee Huntington         : MR-EOM, pCC
   Robert Izsak           : Overlap fitted RIJCOSX, COSX-SCS-MP3, EOM
   Riya Kayal             : Wick's Theorem for AUTO-CI, AUTO-CI UHF-CCSDT
   Emily Kempfer          : AUTO-CI, RHF CISDT and CCSDT
   Christian Kollmar      : KDIIS, OOCD, Brueckner-CCSD(T), CCSD density, CASPT2, CASPT2-K, improved NEVPT2
   Axel Koslowski         : Symmetry handling
   Simone Kossmann        : Meta GGA functionals, TD-DFT gradient, OOMP2, (MP2 Hessian; deprecated post 5.0)
   Lucas Lang             : DCDCAS
   Marvin Lechner         : AUTO-CI (C++ implementation), FIC-MRCC
   Spencer Leger          : CASSCF response
   Dagmar Lenk            : GEPOL surface, SMD, ORCA-2-JSON
   Dimitrios Liakos       : Extrapolation schemes; Compound Job, initial MDCI parallelization
   Dimitrios Manganas     : Further ROCIS development; embedding schemes. LFT, Crystal Embedding
   Dimitrios Pantazis     : SARC Basis sets
   Anastasios Papadopoulos: AUTO-CI, single reference methods and gradients
   Taras Petrenko         : pre 6.0 DFT Hessian and TD-DFT gradient, (ASA, deprecated), ECA, 1-Electron XAS/XES, NRVS
   Peter Pinski           : DLPNO-MP2, DLPNO-MP2 Gradient
   Christoph Reimann      : Effective Core Potentials
   Marius Retegan         : Local ZFS, SOC
   Christoph Riplinger    : Optimizer, TS searches, QM/MM, DLPNO-CCSD(T), (RO)-DLPNO pert. Triples
   Michael Roemelt        : Original ROCIS implementation
   Masaaki Saitow         : Open-shell DLPNO-CCSD energy and density
   Barbara Sandhoefer     : DKH picture change effects
   Kantharuban Sivalingam : CASSCF convergence/infrastructure, NEVPT2 and variants, FIC-MRCI
   Bernardo de Souza      : ESD, SOC TD-DFT
   Georgi Stoychev        : AutoAux, RI-MP2 NMR, DLPNO-MP2 response, X2C
   Van Anh Tran           : RI-MP2 g-tensors
   Willem Van den Heuvel  : Paramagnetic NMR
   Zikuan Wang            : NOTCH, Electric field optimization 
   Frank Wennmohs         : Technical directorship and infrastructure
   Hang Xu                : AUTO-CI-Response properties 


 We gratefully acknowledge several colleagues who have allowed us to
 interface, adapt or use parts of their codes:
   Stefan Grimme, W. Hujo, H. Kruse, P. Pracht,  : VdW corrections, initial TS optimization,
                  C. Bannwarth, S. Ehlert,         DFT functionals, gCP, sTDA/sTD-DF
                  L. Wittmann, M. Mueller
   Ed Valeev, F. Pavosevic, A. Kumar             : LibInt (2-el integral package), F12 methods
   Garnet Chan, S. Sharma, J. Yang, R. Olivares  : DMRG
   Ulf Ekstrom                                   : XCFun DFT Library
   Mihaly Kallay                                 : mrcc  (arbitrary order and MRCC methods)
   Frank Weinhold                                : gennbo (NPA and NBO analysis)
   Simon Mueller                                 : openCOSMO-RS
   Christopher J. Cramer and Donald G. Truhlar   : smd solvation model
   Lars Goerigk                                  : TD-DFT with DH, B97 family of functionals
   V. Asgeirsson, H. Jonsson                     : NEB implementation
   FAccTs GmbH                                   : IRC, NEB, NEB-TS, DLPNO-Multilevel, CI-OPT
                                                   MM, QMMM, 2- and 3-layer-ONIOM, Crystal-QMMM,
                                                   LR-CPCM, SF, NACMEs, symmetry and pop. for TD-DFT,
                                                   nearIR, NL-DFT gradient (VV10), updates on ESD,
                                                   ML-optimized integration grids, MBIS, APM,
                                                   GOAT, DOCKER, SOLVATOR, interface openCOSMO-RS
   S Lehtola, MJT Oliveira, MAL Marques          : LibXC Library
   Liviu Ungur et al                             : ANISO software


 Your calculation uses the libint2 library for the computation of 2-el integrals
 For citations please refer to: http://libint.valeyev.net

 Your ORCA version has been built with support for libXC version: 6.2.2
 For citations please refer to: https://libxc.gitlab.io

 This ORCA versions uses:
   CBLAS   interface :  Fast vector & matrix operations
   LAPACKE interface :  Fast linear algebra routines
   SCALAPACK package :  Parallel linear algebra routines
   Shared memory     :  Shared parallel matrices
   BLAS/LAPACK       :  OpenBLAS 0.3.27  USE64BITINT DYNAMIC_ARCH NO_AFFINITY SapphireRapids SINGLE_THREADED
        Core in use  :  SapphireRapids
   Copyright (c) 2011-2014, The OpenBLAS Project




***************************************
The coordinates will be read from file: xtb_opt.xyz
***************************************


Your calculation utilizes the geometrical counterpoise correction gCP
Please cite in your paper:
H.Kruse, S. Grimme J.Chem.Phys., 136, (2012), 154101 
   

Your calculation utilizes the atom-pairwise dispersion correction
based on EEQ partial charges (D4)


Your calculation utilizes the SMD solvation module
Please cite in your paper:
A.V. Marenich, C.J. Cramer, D.G. Truhlar J. Phys. Chem. B, 113, (2009), 6378 

================================================================================

----- Orbital basis set information -----
Your calculation utilizes the basis: def2-mTZVPP
   Stefan Grimme, Andreas Hansen, Sebastian Ehlert, and Jan-Michael Mewes 
   J. Chem. Phys. 154, 064103 (2021). DOI: 10.1063/5.0040021

----- AuxJ basis set information -----
Your calculation utilizes the auxiliary basis: def2/J
   F. Weigend, Phys. Chem. Chem. Phys. 8, 1057 (2006).

================================================================================
                                        WARNINGS
                       Please study these warnings very carefully!
================================================================================

WARNING: Old DensityContainer found on disk!
         Will remove this file - 
         If you want to keep old densities, please start your calculation with a different basename. 

Using LibXC functional ID 497 : Re-regularized SCAN exchange by Furness et al
[ 1]  J. W. Furness, A. D. Kaplan, J. Ning, J. P. Perdew, and J. Sun.,  J. Phys. Chem. Lett. 11, 8208-8215 (2020)
[ 2]  J. W. Furness, A. D. Kaplan, J. Ning, J. P. Perdew, and J. Sun.,  J. Phys. Chem. Lett. 11, 9248-9248 (2020)
Using LibXC functional ID 498 : Re-regularized SCAN correlation by Furness et al
[ 1]  J. W. Furness, A. D. Kaplan, J. Ning, J. P. Perdew, and J. Sun.,  J. Phys. Chem. Lett. 11, 8208-8215 (2020)
[ 2]  J. W. Furness, A. D. Kaplan, J. Ning, J. P. Perdew, and J. Sun.,  J. Phys. Chem. Lett. 11, 9248-9248 (2020)
Using LibXC functional ID 497 : Re-regularized SCAN exchange by Furness et al
[ 1]  J. W. Furness, A. D. Kaplan, J. Ning, J. P. Perdew, and J. Sun.,  J. Phys. Chem. Lett. 11, 8208-8215 (2020)
[ 2]  J. W. Furness, A. D. Kaplan, J. Ning, J. P. Perdew, and J. Sun.,  J. Phys. Chem. Lett. 11, 9248-9248 (2020)
Using LibXC functional ID 498 : Re-regularized SCAN correlation by Furness et al
[ 1]  J. W. Furness, A. D. Kaplan, J. Ning, J. P. Perdew, and J. Sun.,  J. Phys. Chem. Lett. 11, 8208-8215 (2020)
[ 2]  J. W. Furness, A. D. Kaplan, J. Ning, J. P. Perdew, and J. Sun.,  J. Phys. Chem. Lett. 11, 9248-9248 (2020)

================================================================================
                                       INPUT FILE
================================================================================
NAME = xtb_opt.inp
|  1> ! r2scan-3c def2/J RI DEFGRID2 scfconv7 ENGRAD tightSCF miniprint
|  2> %cpcm
|  3>     smd true
|  4>     smdsolvent "water"
|  5> end
|  6> * xyzfile 0 1 xtb_opt.xyz
|  7> 
|  8>                          ****END OF INPUT****
================================================================================

                     *******************************
                     * Energy+Gradient Calculation *
                     *******************************

---------------------------------
CARTESIAN COORDINATES (ANGSTROEM)
---------------------------------
  C      2.876993   -1.282104    3.181304
  C      1.600807   -1.392870    2.384715
  O      1.480360   -0.309577    1.398407
  P      2.336003   -0.294480    0.041171
  S      2.829205   -2.015328   -0.724638
  O      3.540140    0.692357    0.464915
  C      4.677448    0.913390   -0.437856
  C      5.601169    1.892432    0.240767
  S      1.186068    0.996002   -1.184788
  C      0.120429   -0.217352   -2.058813
  S     -1.033081   -1.217370   -1.039039
  P     -2.302167    0.286293   -0.255970
  S     -2.684544    1.793048   -1.427849
  O     -1.608928    0.605727    1.156521
  C     -1.869212    1.858997    1.881725
  C     -3.241495    1.867764    2.508054
  O     -3.557057   -0.604319    0.230030
  C     -4.581853   -1.038436   -0.727926
  C     -5.590316   -1.853535    0.040426
  H      3.758103   -1.421541    2.547810
  H      2.945483   -0.310684    3.678841
  H      2.881839   -2.064981    3.946600
  H      0.716818   -1.262699    3.012368
  H      1.525684   -2.348412    1.856622
  H      5.164799   -0.050541   -0.615252
  H      4.298634    1.306280   -1.388232
  H      5.954393    1.495944    1.197791
  H      6.468872    2.062577   -0.404101
  H      5.103441    2.851691    0.411543
  H      0.745556   -0.944718   -2.584685
  H     -0.449143    0.370073   -2.784732
  H     -1.079188    1.883617    2.634989
  H     -1.726354    2.692995    1.187697
  H     -3.373867    1.009846    3.173047
  H     -3.351984    2.783939    3.096994
  H     -4.029292    1.855855    1.749072
  H     -5.033230   -0.146174   -1.172650
  H     -4.098003   -1.628286   -1.514289
  H     -5.126056   -2.739239    0.483403
  H     -6.051441   -1.255943    0.832371
  H     -6.376005   -2.181819   -0.646802

----------------------------
CARTESIAN COORDINATES (A.U.)
----------------------------
  NO LB      ZA    FRAG     MASS         X           Y           Z
   0 C     6.0000    0    12.011    5.436728   -2.422825    6.011792
   1 C     6.0000    0    12.011    3.025087   -2.632143    4.506459
   2 O     8.0000    0    15.999    2.797475   -0.585015    2.642606
   3 P    15.0000    0    30.974    4.414406   -0.556487    0.077803
   4 S    16.0000    0    32.060    5.346422   -3.808417   -1.369367
   5 O     8.0000    0    15.999    6.689895    1.308365    0.878562
   6 C     6.0000    0    12.011    8.839095    1.726057   -0.827427
   7 C     6.0000    0    12.011   10.584675    3.576179    0.454983
   8 S    16.0000    0    32.060    2.241345    1.882172   -2.238925
   9 C     6.0000    0    12.011    0.227578   -0.410735   -3.890593
  10 S    16.0000    0    32.060   -1.952240   -2.300495   -1.963499
  11 P    15.0000    0    30.974   -4.350465    0.541016   -0.483713
  12 S    16.0000    0    32.060   -5.073053    3.388371   -2.698244
  13 O     8.0000    0    15.999   -3.040434    1.144659    2.185508
  14 C     6.0000    0    12.011   -3.532299    3.512995    3.555945
  15 C     6.0000    0    12.011   -6.125539    3.529562    4.739535
  16 O     8.0000    0    15.999   -6.721864   -1.141998    0.434694
  17 C     6.0000    0    12.011   -8.658447   -1.962360   -1.375580
  18 C     6.0000    0    12.011  -10.564166   -3.502674    0.076394
  19 H     1.0000    0     1.008    7.101785   -2.686322    4.814664
  20 H     1.0000    0     1.008    5.566157   -0.587108    6.952002
  21 H     1.0000    0     1.008    5.445887   -3.902248    7.457994
  22 H     1.0000    0     1.008    1.354590   -2.386155    5.692550
  23 H     1.0000    0     1.008    2.883126   -4.437856    3.508507
  24 H     1.0000    0     1.008    9.760056   -0.095508   -1.162658
  25 H     1.0000    0     1.008    8.123242    2.468512   -2.623378
  26 H     1.0000    0     1.008   11.252171    2.826925    2.263498
  27 H     1.0000    0     1.008   12.224396    3.897706   -0.763641
  28 H     1.0000    0     1.008    9.644106    5.388915    0.777704
  29 H     1.0000    0     1.008    1.408897   -1.785258   -4.884348
  30 H     1.0000    0     1.008   -0.848758    0.699337   -5.262382
  31 H     1.0000    0     1.008   -2.039370    3.559521    4.979407
  32 H     1.0000    0     1.008   -3.262337    5.089022    2.244421
  33 H     1.0000    0     1.008   -6.375685    1.908333    5.996190
  34 H     1.0000    0     1.008   -6.334333    5.260883    5.852470
  35 H     1.0000    0     1.008   -7.614258    3.507058    3.305267
  36 H     1.0000    0     1.008   -9.511427   -0.276229   -2.215988
  37 H     1.0000    0     1.008   -7.744103   -3.077015   -2.861591
  38 H     1.0000    0     1.008   -9.686842   -5.176411    0.913500
  39 H     1.0000    0     1.008  -11.435566   -2.373388    1.572953
  40 H     1.0000    0     1.008  -12.048904   -4.123040   -1.222278

------------------------------------------------------------------------------
                   ___                                                        
                  /   \      - P O W E R E D   B Y -                         
                 /     \                                                     
                 |  |  |   _    _      __       _____    __    __             
                 |  |  |  | |  | |    /  \     |  _  \  |  |  /  |          
                  \  \/   | |  | |   /    \    | | | |  |  | /  /          
                 / \  \   | |__| |  /  /\  \   | |_| |  |  |/  /          
                |  |  |   |  __  | /  /__\  \  |    /   |      \           
                |  |  |   | |  | | |   __   |  |    \   |  |\   \          
                \     /   | |  | | |  |  |  |  | |\  \  |  | \   \       
                 \___/    |_|  |_| |__|  |__|  |_| \__\ |__|  \__/        
                                                                              
                      - O R C A' S   B I G   F R I E N D -                    
                                      &                                       
                       - I N T E G R A L  F E E D E R -                       
                                                                              
 v1 FN, 2020, v2 2021, v3 2022-2024                                           
------------------------------------------------------------------------------


----------------------
SHARK INTEGRAL PACKAGE
----------------------

Number of atoms                             ...     41
Number of basis functions                   ...    539
Number of shells                            ...    253
Maximum angular momentum                    ...      2
Integral batch strategy                     ... SHARK/LIBINT Hybrid
RI-J (if used) integral strategy            ... SPLIT-RIJ (Revised 2003 algorithm where possible)
Printlevel                                  ...      1
Contraction scheme used                     ... SEGMENTED contraction
Prescreening option                         ... SCHWARTZ
   Thresh                                   ... 3.000e-11
   Tcut                                     ... 1.000e-12
   Tpresel                                  ... 1.000e-12 
Coulomb Range Separation                    ... NOT USED
Exchange Range Separation                   ... NOT USED
Multipole approximations                    ... NOT USED
Finite Nucleus Model                        ... NOT USED
CABS basis                                  ... NOT available
Auxiliary Coulomb fitting basis             ... AVAILABLE
   # of basis functions in Aux-J            ...   1185
   # of shells in Aux-J                     ...    407
   Maximum angular momentum in Aux-J        ...      4
Auxiliary J/K fitting basis                 ... NOT available
Auxiliary Correlation fitting basis         ... NOT available
Auxiliary 'external' fitting basis          ... NOT available

Checking pre-screening integrals            ... done (  0.0 sec) Dimension = 253
Check shell pair data                       ... done (  0.0 sec)
Shell pair information
Shell pair cut-off parameter TPreSel        ...   1.0e-12
Total number of shell pairs                 ...     32131
Shell pairs after pre-screening             ...     21016
Total number of primitive shell pairs       ...    124843
Primitive shell pairs kept                  ...     49262
          la=0 lb=0:   5902 shell pairs
          la=1 lb=0:   7629 shell pairs
          la=1 lb=1:   2510 shell pairs
          la=2 lb=0:   2820 shell pairs
          la=2 lb=1:   1806 shell pairs
          la=2 lb=2:    349 shell pairs

Calculating one electron integrals          ... done (  0.1 sec)
Calculating RI/J V-Matrix + Cholesky decomp.... done (  0.4 sec)
Calculating Nuclear repulsion               ... done (  0.0 sec) ENN=   2690.194802448169 Eh

Diagonalization of the overlap matrix:
Smallest eigenvalue                        ... 3.643e-04
Time for diagonalization                   ...    0.033 sec
Threshold for overlap eigenvalues          ... 1.000e-07
Number of eigenvalues below threshold      ... 0
Time for construction of square roots      ...    0.064 sec
Total time needed                          ...    0.110 sec

-------------------
DFT GRID GENERATION
-------------------

General Integration Accuracy     IntAcc      ... 4.388
Radial Grid Type                 RadialGrid  ... OptM3 with GC (2021)
Angular Grid (max. ang.)         AngularGrid ... 4 (Lebedev-302)
Angular grid pruning method      GridPruning ... 4 (adaptive)
Weight generation scheme         WeightScheme... mBecke (2022)
Basis function cutoff            BFCut       ... 1.0000e-11
Integration weight cutoff        WCut        ... 1.0000e-14
Partially contracted basis set               ... off
Rotationally invariant grid construction     ... off
Angular grids for H and He will be reduced by one unit
Diffuse basis detected: some atoms will have their outermost
                        angular grid increased by 1.

Total number of grid points                  ...   193280
Total number of batches                      ...     3040
Average number of points per batch           ...       63
Average number of grid points per atom       ...     4714
Initializing property integral containers    ... done (  0.0 sec)

SHARK setup successfully completed in   3.5 seconds

Maximum memory used throughout the entire STARTUP-calculation: 101.4 MB
Occupation numbers will be reassigned to an Aufbau configuration
             **** ENERGY FILE WAS UPDATED (xtb_opt.en.tmp) ****
Finished Guess after   1.1 sec
Maximum memory used throughout the entire GUESS-calculation: 54.9 MB
--------------------
CPCM SOLVATION MODEL
--------------------
CPCM parameters:
  Epsilon                                         ...      78.3550
  Refrac                                          ...       1.3328
  Rsolv                                           ...       1.3000
  Surface type                                    ... GAUSSIAN VDW
  Discretization scheme                           ... Constant charge density
    Threshold for H atoms                         ...       5.0000 (charges/Ang^2)
    Threshold for non-H atoms                     ...       5.0000 (charges/Ang^2)
  Epsilon function type                           ...         CPCM
Solvent:                                          ... WATER
SMD-CDS solvent descriptors:
  Soln                                            ...       1.3328
  Soln25                                          ...       1.3323
  Sola                                            ...       0.0000
  Solb                                            ...       0.0000
  Solg                                            ...       0.0000
  Solc                                            ...       0.0000
  Solh                                            ...       0.0000
Radii:
  Scheme                                          ... Element-dependent radii
  Radius for C  used is    3.4960 Bohr (=   1.8500 Ang.)
  Radius for O  used is    2.8724 Bohr (=   1.5200 Ang.)
  Radius for P  used is    4.0062 Bohr (=   2.1200 Ang.)
  Radius for S  used is    4.7054 Bohr (=   2.4900 Ang.)
  Radius for H  used is    2.2677 Bohr (=   1.2000 Ang.)
Calculating surface                               ...        done! (  0.0s)
Cavity surface points                             ...         3498
Cavity Volume                                     ...    2823.6796
Cavity Surface-area                               ...    1451.8211
Calculating surface distance matrix               ...        done! (  0.1s)
Performing Cholesky decomposition & store         ...        done! (  0.7s)
Overall time for CPCM initialization              ...                 0.8s

----------------------------------------D-I-I-S--------------------------------------------
Iteration    Energy (Eh)           Delta-E    RMSDP     MaxDP     DIISErr   Damp  Time(sec)
-------------------------------------------------------------------------------------------
               ***  Starting incremental Fock matrix formation  ***
                              *** Initializing SOSCF ***
---------------------------------------S-O-S-C-F--------------------------------------
Iteration    Energy (Eh)           Delta-E    RMSDP     MaxDP     MaxGrad    Time(sec)
--------------------------------------------------------------------------------------
    1    -2932.5222551111273788     0.00e+00  2.31e-07  2.36e-05  8.77e-07    13.2
               *** Restarting incremental Fock matrix formation ***
    2    -2932.5222551115684837    -4.41e-10  2.95e-07  3.30e-05  2.32e-06    13.2
                  *** Gradient check signals convergence ***

               *****************************************************
               *                     SUCCESS                       *
               *           SCF CONVERGED AFTER   2 CYCLES          *
               *****************************************************


SMD CDS free energy correction energy :                 7.52238     Kcal/mol
Total Energy after SMD CDS correction =             -2932.510267445 Eh
             **** ENERGY FILE WAS UPDATED (xtb_opt.en.tmp) ****

----------------
TOTAL SCF ENERGY
----------------

Total Energy       :      -2932.51026744466753 Eh          -79797.66121 eV

Components:
Nuclear Repulsion  :       2690.19480244816896 Eh           73203.92219 eV
Electronic Energy  :      -5622.68936444934843 Eh         -153001.15604 eV
One Electron Energy:      -9403.48792628303818 Eh         -255881.91526 eV
Two Electron Energy:       3780.79856183368975 Eh          102880.75922 eV
CPCM Dielectric    :         -0.02769311038888 Eh              -0.75357 eV
SMD CDS (Gcds)     :          0.01198766690091 Eh               0.32620 eV

Virial components:
Potential Energy   :      -5855.61242358972049 Eh         -159339.31470 eV
Kinetic Energy     :       2923.10215614505341 Eh           79541.65349 eV
Virial Ratio       :          2.00321853660839

DFT components:
N(Alpha)           :      100.999949771429 electrons
N(Beta)            :      100.999949771429 electrons
N(Total)           :      201.999899542858 electrons
E(X)               :     -233.397168651491 Eh       
E(C)               :       -7.102015677059 Eh       
E(XC)              :     -240.499184328550 Eh       

CPCM Solvation Model Properties:
Surface-charge          :         -0.04687949354000
Corrected charge        :          0.00000000000000
Outlying charge corr.   :          0.00010972347932 Eh               0.00299 eV
Free-energy (cav+disp)  :          0.01198766690091 Eh               0.32620 eV

---------------
SCF CONVERGENCE
---------------

  Last Energy change         ...    4.4110e-10  Tolerance :   1.0000e-07
  Last MAX-Density change    ...    3.2958e-05  Tolerance :   1.0000e-07
  Last RMS-Density change    ...    2.9546e-07  Tolerance :   5.0000e-09
  Last DIIS Error            ...    1.0399e-05  Tolerance :   1.0000e-07
  Last Orbital Gradient      ...    2.3175e-06  Tolerance :   1.0000e-04
  Last Orbital Rotation      ...    5.5372e-06  Tolerance :   1.0000e-04


----------------
ORBITAL ENERGIES
----------------

  NO   OCC          E(Eh)            E(eV) 
   0   2.0000     -88.583073     -2410.4680 
   1   2.0000     -88.583016     -2410.4664 
   2   2.0000     -88.532004     -2409.0783 
   3   2.0000     -88.531971     -2409.0774 
   4   2.0000     -76.921197     -2093.1322 
   5   2.0000     -76.921120     -2093.1301 
   6   2.0000     -18.994559      -516.8682 
   7   2.0000     -18.994522      -516.8672 
   8   2.0000     -18.993191      -516.8310 
   9   2.0000     -18.992948      -516.8244 
  10   2.0000     -10.111003      -275.1344 
  11   2.0000     -10.092062      -274.6190 
  12   2.0000     -10.091929      -274.6154 
  13   2.0000     -10.091849      -274.6132 
  14   2.0000     -10.091678      -274.6085 
  15   2.0000     -10.022543      -272.7273 
  16   2.0000     -10.022413      -272.7237 
  17   2.0000     -10.021846      -272.7083 
  18   2.0000     -10.021803      -272.7071 
  19   2.0000      -7.876611      -214.3335 
  20   2.0000      -7.876533      -214.3314 
  21   2.0000      -7.827254      -212.9904 
  22   2.0000      -7.827232      -212.9898 
  23   2.0000      -6.598976      -179.5673 
  24   2.0000      -6.598899      -179.5652 
  25   2.0000      -5.823613      -158.4686 
  26   2.0000      -5.823522      -158.4661 
  27   2.0000      -5.820335      -158.3794 
  28   2.0000      -5.820285      -158.3780 
  29   2.0000      -5.813902      -158.2043 
  30   2.0000      -5.813816      -158.2020 
  31   2.0000      -5.774660      -157.1365 
  32   2.0000      -5.774639      -157.1359 
  33   2.0000      -5.767570      -156.9435 
  34   2.0000      -5.767543      -156.9428 
  35   2.0000      -5.767368      -156.9381 
  36   2.0000      -5.767350      -156.9376 
  37   2.0000      -4.744278      -129.0984 
  38   2.0000      -4.744198      -129.0962 
  39   2.0000      -4.743912      -129.0884 
  40   2.0000      -4.743841      -129.0865 
  41   2.0000      -4.743024      -129.0643 
  42   2.0000      -4.742942      -129.0620 
  43   2.0000      -1.040340       -28.3091 
  44   2.0000      -1.039761       -28.2933 
  45   2.0000      -1.001375       -27.2488 
  46   2.0000      -1.000751       -27.2318 
  47   2.0000      -0.795978       -21.6597 
  48   2.0000      -0.755752       -20.5651 
  49   2.0000      -0.742713       -20.2102 
  50   2.0000      -0.724490       -19.7144 
  51   2.0000      -0.724290       -19.7089 
  52   2.0000      -0.710751       -19.3405 
  53   2.0000      -0.693166       -18.8620 
  54   2.0000      -0.677816       -18.4443 
  55   2.0000      -0.628187       -17.0938 
  56   2.0000      -0.617411       -16.8006 
  57   2.0000      -0.594773       -16.1846 
  58   2.0000      -0.588119       -16.0035 
  59   2.0000      -0.587929       -15.9984 
  60   2.0000      -0.529051       -14.3962 
  61   2.0000      -0.520788       -14.1714 
  62   2.0000      -0.489252       -13.3132 
  63   2.0000      -0.488768       -13.3001 
  64   2.0000      -0.471384       -12.8270 
  65   2.0000      -0.456757       -12.4290 
  66   2.0000      -0.444942       -12.1075 
  67   2.0000      -0.443781       -12.0759 
  68   2.0000      -0.440772       -11.9940 
  69   2.0000      -0.429813       -11.6958 
  70   2.0000      -0.418865       -11.3979 
  71   2.0000      -0.407822       -11.0974 
  72   2.0000      -0.403464       -10.9788 
  73   2.0000      -0.396517       -10.7898 
  74   2.0000      -0.394653       -10.7390 
  75   2.0000      -0.386189       -10.5087 
  76   2.0000      -0.385169       -10.4810 
  77   2.0000      -0.366926        -9.9846 
  78   2.0000      -0.357399        -9.7253 
  79   2.0000      -0.357333        -9.7235 
  80   2.0000      -0.352260        -9.5855 
  81   2.0000      -0.352143        -9.5823 
  82   2.0000      -0.348214        -9.4754 
  83   2.0000      -0.347664        -9.4604 
  84   2.0000      -0.341335        -9.2882 
  85   2.0000      -0.327632        -8.9153 
  86   2.0000      -0.318928        -8.6785 
  87   2.0000      -0.318781        -8.6745 
  88   2.0000      -0.317151        -8.6301 
  89   2.0000      -0.302908        -8.2425 
  90   2.0000      -0.299742        -8.1564 
  91   2.0000      -0.293422        -7.9844 
  92   2.0000      -0.284213        -7.7338 
  93   2.0000      -0.278381        -7.5751 
  94   2.0000      -0.276378        -7.5206 
  95   2.0000      -0.254347        -6.9211 
  96   2.0000      -0.243254        -6.6193 
  97   2.0000      -0.237747        -6.4694 
  98   2.0000      -0.232543        -6.3278 
  99   2.0000      -0.225835        -6.1453 
 100   2.0000      -0.223902        -6.0927 
 101   0.0000      -0.053484        -1.4554 
 102   0.0000      -0.030229        -0.8226 
 103   0.0000      -0.011252        -0.3062 
 104   0.0000      -0.003603        -0.0980 
 105   0.0000       0.002727         0.0742 
 106   0.0000       0.015235         0.4146 
 107   0.0000       0.027973         0.7612 
 108   0.0000       0.029340         0.7984 
 109   0.0000       0.042803         1.1647 
 110   0.0000       0.065159         1.7731 
 111   0.0000       0.070303         1.9130 
*Only the first 10 virtual orbitals were printed.
Total SCF time: 0 days 0 hours 0 min 28 sec 
Finished LeanSCF after  28.6 sec

Maximum memory used throughout the entire LEANSCF-calculation: 139.9 MB


-------------------------------------------------------------------------------
                          DFT DISPERSION CORRECTION                            
                                                                               
                                DFTD4 V3.4.0                                   
-------------------------------------------------------------------------------
-------------------------   ----------------
Dispersion correction           -0.020057528
-------------------------   ----------------

------------------   -----------------
gCP correction             0.044741387
------------------   -----------------

-------------------------   --------------------
FINAL SINGLE POINT ENERGY     -2932.485583585856
-------------------------   --------------------

------------------------------------------------------------------------------
                         ORCA SCF GRADIENT CALCULATION
------------------------------------------------------------------------------

Nuc. rep. gradient        (SHARK) ... done (  0.0 sec)
HCore & Overlap gradient  (SHARK) ... done (  1.9 sec)
Split-RIJ-J gradient      (SHARK) ... done (  9.1 sec)
XC gradient                       ... done ( 22.1 sec)
CPCM gradient                     ... done (  7.8 sec)
SMD gradient                      ... done (  0.0 sec)
Dispersion correction             ... done (  0.0 sec)

-------------------
DISPERSION GRADIENT
-------------------

   1   C   :    0.000036086   -0.000053465    0.000146895
   2   C   :    0.000041747   -0.000092349    0.000139304
   3   O   :    0.000060143   -0.000040662    0.000109995
   4   P   :    0.000170098   -0.000073860   -0.000051559
   5   S   :    0.000138432   -0.000244018   -0.000121743
   6   O   :    0.000092298    0.000056938   -0.000002402
   7   C   :    0.000113530    0.000054110   -0.000042726
   8   C   :    0.000112626    0.000082706    0.000005060
   9   S   :    0.000082963    0.000123188   -0.000228049
  10   C   :    0.000008504   -0.000016635   -0.000158661
  11   S   :   -0.000059006   -0.000167675   -0.000203954
  12   P   :   -0.000163926    0.000062325   -0.000083392
  13   S   :   -0.000120388    0.000212201   -0.000185544
  14   O   :   -0.000071130    0.000063985    0.000093232
  15   C   :   -0.000054138    0.000118233    0.000111402
  16   C   :   -0.000052075    0.000081971    0.000127047
  17   O   :   -0.000091839   -0.000056414   -0.000000466
  18   C   :   -0.000108578   -0.000064496   -0.000043564
  19   C   :   -0.000114178   -0.000082453    0.000009125
  20   H   :    0.000010673   -0.000027408    0.000058545
  21   H   :    0.000008139   -0.000007828    0.000063870
  22   H   :    0.000007293   -0.000017124    0.000045197
  23   H   :    0.000011535   -0.000033810    0.000077304
  24   H   :    0.000014359   -0.000049139    0.000047746
  25   H   :    0.000053276    0.000007404   -0.000015025
  26   H   :    0.000044246    0.000034082   -0.000017497
  27   H   :    0.000045209    0.000031347    0.000006450
  28   H   :    0.000030462    0.000020024   -0.000002079
  29   H   :    0.000036884    0.000036548    0.000005795
  30   H   :    0.000005455   -0.000022860   -0.000058610
  31   H   :    0.000000994    0.000010087   -0.000062159
  32   H   :   -0.000018279    0.000048291    0.000065796
  33   H   :   -0.000017936    0.000057165    0.000034630
  34   H   :   -0.000015160    0.000021018    0.000059908
  35   H   :   -0.000012462    0.000026045    0.000039621
  36   H   :   -0.000017113    0.000038967    0.000049589
  37   H   :   -0.000051398   -0.000011560   -0.000019575
  38   H   :   -0.000042475   -0.000038243   -0.000014759
  39   H   :   -0.000037953   -0.000035528    0.000009144
  40   H   :   -0.000046611   -0.000030395    0.000007400
  41   H   :   -0.000030305   -0.000020712   -0.000001291

Difference to translation invariance:
           :   -0.0000000000   -0.0000000000   -0.0000000000

Difference to rotation invariance:
           :   -0.0000000000   -0.0000000000   -0.0000000000

Norm of the Dispersion gradient    ...    0.0008718948
RMS gradient                       ...    0.0000786161
MAX gradient                       ...    0.0002440179
gCP correction                   ... done

------------------
CARTESIAN GRADIENT
------------------

   1   C   :    0.000017348   -0.000037682    0.000127245
   2   C   :    0.000030163    0.000217502   -0.000237883
   3   O   :   -0.000135763   -0.000076893    0.000132984
   4   P   :   -0.000469583   -0.000402571   -0.000262345
   5   S   :    0.000124805   -0.000131142    0.000128748
   6   O   :    0.000448421    0.000088778   -0.000209102
   7   C   :   -0.000652295   -0.000209605    0.000452198
   8   C   :    0.000210630    0.000167265   -0.000125047
   9   S   :   -0.000003604    0.000591700    0.000061502
  10   C   :    0.000392694   -0.000390763   -0.000045550
  11   S   :   -0.000126627    0.000245963    0.000105931
  12   P   :    0.000152819    0.000084716   -0.000180577
  13   S   :    0.000025589    0.000005484   -0.000021121
  14   O   :    0.000173483    0.000107693    0.000176788
  15   C   :    0.000045106   -0.000216988   -0.000146367
  16   C   :   -0.000061420    0.000052624    0.000095829
  17   O   :   -0.000782022   -0.000237526   -0.000132829
  18   C   :    0.000601786    0.000258975    0.000382194
  19   C   :   -0.000110987   -0.000162910    0.000059241
  20   H   :   -0.000068508    0.000119433   -0.000018129
  21   H   :   -0.000045661   -0.000105972    0.000006896
  22   H   :    0.000088481   -0.000022244   -0.000136191
  23   H   :    0.000007000    0.000006894    0.000016526
  24   H   :   -0.000054754   -0.000028172    0.000011896
  25   H   :    0.000186579   -0.000272047   -0.000133548
  26   H   :   -0.000116602    0.000186965   -0.000354715
  27   H   :    0.000138303   -0.000177413    0.000436373
  28   H   :    0.000108120   -0.000030181   -0.000099966
  29   H   :   -0.000071553    0.000395458    0.000086614
  30   H   :   -0.000056503   -0.000033810   -0.000051090
  31   H   :   -0.000007216    0.000051500    0.000121017
  32   H   :    0.000024052   -0.000023678    0.000002202
  33   H   :    0.000061917    0.000044421    0.000016995
  34   H   :    0.000066796    0.000126042   -0.000019519
  35   H   :   -0.000077905   -0.000038599   -0.000198084
  36   H   :    0.000114006   -0.000156855    0.000034808
  37   H   :   -0.000102482    0.000130913   -0.000113991
  38   H   :    0.000075578   -0.000115351   -0.000182235
  39   H   :   -0.000018309   -0.000145841    0.000083252
  40   H   :   -0.000107386    0.000125700    0.000171653
  41   H   :   -0.000024496    0.000008219   -0.000042602

Difference to translation invariance:
           :    0.0000000000   -0.0000000000    0.0000000000

Difference to rotation invariance:
           :   -0.0002019862    0.0002402114   -0.0013919817

Norm of the Cartesian gradient     ...    0.0022524419
RMS gradient                       ...    0.0002030958
MAX gradient                       ...    0.0007820218

-------
TIMINGS
-------

Total SCF gradient time     ....       46.830 sec

Densities                   ....       0.007 sec  (  0.0%)
One electron gradient       ....       1.946 sec  (  4.2%)
RI-J Coulomb gradient       ....       9.124 sec  ( 19.5%)
XC gradient                 ....      22.069 sec  ( 47.1%)
CPCM gradient               ....       7.823 sec  ( 16.7%)
   A-Matrix (El+Nuc)        ....       0.276 sec  (  0.6%)
   Potential                ....       7.547 sec  ( 16.1%)
SMD gradient                ....       0.014 sec  (  0.0%)

Maximum memory used throughout the entire SCFGRAD-calculation: 83.4 MB

------------------------------------------------------------------------------
                              ORCA PROPERTY CALCULATIONS
------------------------------------------------------------------------------

GBWName                                 ... xtb_opt.gbw
Number of atoms                         ...     41
Number of basis functions               ...    539
Max core memory                         ...   1024 MB

Electric properties:
Dipole moment                           ... YES
Quadrupole moment                       ...  NO
Static polarizability (Dipole/Dipole)   ...  NO
Static polarizability (Dipole/Quad.)    ...  NO
Static polarizability (Quad./Quad.)     ...  NO
Static polarizability (Velocity)        ...  NO

Atomic electric properties:
Dipole moment                           ...  NO
Quadrupole moment                       ...  NO
Static polarizability                   ...  NO

Choice of electric origin               ... Center of mass
Position of electric origin             ...     0.011041     0.012931     0.039867

General magnetic properties:
Magnetizability                         ...  NO

EPR properties:
g-Tensor (aka g-matrix)                 ...  NO
Zero-Field splitting spin-orbit         ...  NO
Zero-field splitting spin-spin          ...  NO
Hyperfine couplings                     ...  NO (   0 nuclei)
Quadrupole couplings                    ...  NO (   0 nuclei)
Contact density                         ...  NO (   0 nuclei)

NMR properties:
Chemical shifts                         ...  NO (   0 nuclei)
Spin-rotation constants                 ...  NO (   0 nuclei)
Spin-spin couplings                     ...  NO (   0 nuclei,    0 pairs)

Choice of magnetic origin               ... GIAO
Position of magnetic origin             ...     0.000000     0.000000     0.000000

Properties with geometric perturbations:
SCF Hessian                             ...  NO
IR spectrum                             ...  NO
VCD spectrum                            ...  NO
X-ray spectroscopy properties:
SCF XES/XAS/RIXS spectra                ...  NO


-------------
DIPOLE MOMENT
-------------

Method             : SCF
Type of density    : Electron Density
Multiplicity       :   1
Irrep              :   0
Energy             : -2932.5102674446675337 Eh
Relativity type    : 
Basis              : AO
                                X                 Y                 Z
Electronic contribution:      1.119027751      -1.647744263     -16.516472708
Nuclear contribution   :     -1.211837209       1.733963442      17.512539632
                        -----------------------------------------
Total Dipole Moment    :     -0.092809458       0.086219179       0.996066924
                        -----------------------------------------
Magnitude (a.u.)       :      1.004089966
Magnitude (Debye)      :      2.552193867



--------------------
Rotational spectrum 
--------------------
 
Rotational constants in cm-1:             0.012684             0.004245             0.004201 
Rotational constants in MHz :           380.262554           127.274406           125.928155 

Dipole components along the rotational axes: 
x,y,z [a.u.] :    -0.042649     1.003077     0.014622 
x,y,z [Debye]:    -0.108405     2.549620     0.037166 

 

Dipole moment calculation done in   0.1 sec 

Maximum memory used throughout the entire PROP-calculation: 51.2 MB

--------------------------------
SUGGESTED CITATIONS FOR THIS RUN
--------------------------------

Below you find a list of papers that are relevant to this ORCA run
We neither can nor want to force you to cite these papers, but we appreciate if you do
You receive ORCA, which is the product of decades of hard work by many enthusiastic individuals, for free
The only thing we kindly ask in return is that you cite our papers,
We deeply appreciate it, if you show your appreciation for ORCA by not just citing the generic ORCA reference.

Please note that relegating all ORCA citations to the supporting information does *not* help us.
SI sections are not indexed - citations you put there will not count into any citation statistics
But we need these citations in order to attract the funding resources that allow us to do what we are doing

Therefore, if you are a happy ORCA user, please consider citing a few of the papers listed below in the main body of your paper

In addition to the list printed below, the program has created the file xtb_opt.bibtex that contains the list in bibtex format
You can import this file easily into all common literature databanks and citation aid programs


List of essential papers. We consider these as the minimum necessary citations

  1. Neese,F.
     Software update: the ORCA program system, version 5.0
     WIRES Comput. Molec. Sci., 2022 12(1)e1606
     doi.org/10.1002/wcms.1606
  2. Grimme,S.; Hansen,A.; Ehlert,S.; Mewes,J.
     r2SCAN-3c: A 'Swiss army knife' composite electronic-structure method
     J. Chem. Phys., 2021 154 064103
     doi.org/10.1063/5.0040021

List of papers to cite with high priority. The work reported in these papers was absolutely
necessary for this run to complete.
Our perspective: the developers of density functionals and basis sets usually get cited in chemistry papers
Good! But without the algorithms to do something with them, the functionals or basis sets would not do anything.
Hence, in our opinion, the algorithm design and method developments papers are equally worthy of getting cited

  1. Neese,F.
     An improvement of the resolution of the identity approximation for the formation of the Coulomb matrix
     J. Comp. Chem., 2003 24(14)1740-1747
     doi.org/10.1002/jcc.10318
  2. Garcia-Rates,M.; Neese,F.
     Effect of the Solute Cavity on the Solvation Energy and its Derivatives within the Framework of the Gaussian Charge Scheme
     J. Comput. Chem., 2020 41 922-939
     doi.org/10.1002/jcc.26139
  3. Neese,F.
     The SHARK Integral Generation and Digestion System
     J. Comp. Chem., 2022  1-16
     doi.org/10.1002/jcc.26942
  4. Lehtola,S.; Steigemann,C.; Oliveira,M.; Marques,M.
     Recent developments in Libxc - A comprehensive library of functionals for density functional theory
     Software X, 2018 7 
     doi.org/10.1016/j.softx.2017.11.002
  5. Caldeweyher,E.; Bannwarth,C.; Grimme,S.
     Extension of the D3 dispersion coefficient model
     J. Chem. Phys., 2017 147 034112-XXXX
     doi.org/10.1063/1.4993215
  6. Caldeweyher,E.; Ehlert,S.; Hansen,A.; Neugebauer,H.; Spicher,S.; Bannwarth,C.; Grimme,S.
     A generally applicable atomic-charge dependent London dispersion correction
     J. Chem. Phys., 2019 150 154122-XXXX
     doi.org/10.1063/1.5090222
  7. Caldeweyher,E.; Mewes,J.; Ehlert,S.; Grimme,S.
     Extension and evaluation of the D4 London-dispersion model for periodic systems
     Phys. Chem. Chem. Phys., 2020 22(16)8499-8512
     doi.org/10.1039/D0CP00502A

List of suggested additional citations. These are papers that are important in the 'surrounding' of 
of this run, or papers that preceded the highly important papers. If you like your results we are grateful for a citation.

  1. Neese,F.
     The ORCA program system
     WIRES Comput. Molec. Sci., 2012 2(1)73-78
     doi.org/10.1002/wcms.81
  2. Neese,F.
     Software update: the ORCA program system, version 4.0
     WIRES Comput. Molec. Sci., 2018 8(1)1-6
     doi.org/10.1002/wcms.1327
  3. Neese,F.; Wennmohs,F.; Becker,U.; Riplinger,C.
     The ORCA quantum chemistry program package
     J. Chem. Phys., 2020 152 Art. No. L224108
     doi.org/10.1063/5.0004608

List of optional additional citations

  1. Neese,F.
     Approximate second-order SCF convergence for spin unrestricted wavefunctions
     Chem. Phys. Lett., 2000 325(1-3)93-98
     doi.org/10.1016/s0009-2614(00)00662-x

Timings for individual modules:

Sum of individual times          ...       80.491 sec (=   1.342 min)
Startup calculation              ...        3.521 sec (=   0.059 min)   4.4 %
SCF iterations                   ...       29.754 sec (=   0.496 min)  37.0 %
Property calculations            ...        0.237 sec (=   0.004 min)   0.3 %
SCF Gradient evaluation          ...       46.979 sec (=   0.783 min)  58.4 %
                             ****ORCA TERMINATED NORMALLY****
TOTAL RUN TIME: 0 days 0 hours 1 minutes 21 seconds 392 msec
  ------------------------------------------------------------------------
          * successful ORCA run, taking over control again...

         :::::::::::::::::::::::::::::::::::::::::::::::::::::
         ::                  ORCA SUMMARY                   ::
         :::::::::::::::::::::::::::::::::::::::::::::::::::::
         :: total energy           -2932.485583585856 Eh    ::
         :: gradient norm              0.002252441854 Eh/a0 ::
         :: HOMO-LUMO gap              0.000000000000 eV    ::
         :::::::::::::::::::::::::::::::::::::::::::::::::::::

      ----------------------------------------------------------- 
     |                       L-ANC optimizer                     |
      ----------------------------------------------------------- 
          low memory version by Sebastian Ehlert

          ...................................................
          :                      SETUP                      :
          :.................................................:
          :   energy convergence        0.5000000E-05 Eh    :
          :   grad. convergence         0.1000000E-02 Eh/a0 :
          :   optimization log               true           :
          :   writing optlog all                1     steps :
          :   Hessian reset                     8     steps :
          :   maximium step len.        1.0000000     a0    :
          :   LBFGS images                      8           :
          ...................................................
 * calculating model hessian...
Using Lindh-Hessian (1995)
 Shifting diagonal of input Hessian by   1.000071600629781E-002
 Lowest  eigenvalues of input Hessian
    0.010000    0.000000    0.000000    0.000000    0.000000    0.000000
    0.000000    0.010019    0.010171    0.010508    0.010739    0.011241
    0.011299    0.011813    0.011834    0.012187    0.012218    0.013010
 Highest eigenvalues
    1.295351    1.295649    1.720455    1.722257    1.860248    1.865943
 

........................................................................
.............................. CYCLE    1 ..............................
........................................................................
                         * ORCA takes the control...
  ------------------------------------------------------------------------

                                 *****************
                                 * O   R   C   A *
                                 *****************

                                            #,                                       
                                            ###                                      
                                            ####                                     
                                            #####                                    
                                            ######                                   
                                           ########,                                 
                                     ,,################,,,,,                         
                               ,,#################################,,                 
                          ,,##########################################,,             
                       ,#########################################, ''#####,          
                    ,#############################################,,   '####,        
                  ,##################################################,,,,####,       
                ,###########''''           ''''###############################       
              ,#####''   ,,,,##########,,,,          '''####'''          '####       
            ,##' ,,,,###########################,,,                        '##       
           ' ,,###''''                  '''############,,,                           
         ,,##''                                '''############,,,,        ,,,,,,###''
      ,#''                                            '''#######################'''  
     '                                                          ''''####''''         
             ,#######,   #######,   ,#######,      ##                                
            ,#'     '#,  ##    ##  ,#'     '#,    #''#        ,####,   ,####,        
            ##       ##  ##   ,#'  ##            #'  '#       #'       #'  '#        
            ##       ##  #######   ##           ,######,      #####,   #    #        
            '#,     ,#'  ##    ##  '#,     ,#' ,#      #,     #,   #   #,  ,#        
             '#######'   ##     ##  '#######'  #'      '#     '####' # '####'        



                #########################################################
                #                        -***-                          #
                #          Department of theory and spectroscopy        #
                #                                                       #
                #                      Frank Neese                      #
                #                                                       #
                #     Directorship, Architecture, Infrastructure        #
                #                    SHARK, DRIVERS                     #
                #        Core code/Algorithms in most modules           #
                #                                                       #
                #        Max Planck Institute fuer Kohlenforschung      #
                #                Kaiser Wilhelm Platz 1                 #
                #                 D-45470 Muelheim/Ruhr                 #
                #                      Germany                          #
                #                                                       #
                #                  All rights reserved                  #
                #                        -***-                          #
                #########################################################


                         Program Version 6.0.0  -   RELEASE  -


 With contributions from (in alphabetic order):
   Daniel Aravena         : Magnetic Suceptibility
   Michael Atanasov       : Ab Initio Ligand Field Theory (pilot matlab implementation)
   Alexander A. Auer      : GIAO ZORA, VPT2 properties, NMR spectrum
   Ute Becker             : All parallelization in ORCA, NUMFREQ, NUMCALC
   Giovanni Bistoni       : ED, misc. LED, open-shell LED, HFLD
   Martin Brehm           : Molecular dynamics
   Dmytro Bykov           : pre 5.0 version of the SCF Hessian
   Marcos Casanova-Páez   : Triplet and SCS-CIS(D). UHF-(DLPNO)-IP/EA/STEOM-CCSD. UHF-CVS-IP/STEOM-CCSD
   Vijay G. Chilkuri      : MRCI spin determinant printing, contributions to CSF-ICE
   Pauline Colinet        : FMM embedding
   Dipayan Datta          : RHF DLPNO-CCSD density
   Achintya Kumar Dutta   : EOM-CC, STEOM-CC
   Nicolas Foglia         : Exact transition moments, OPA infrastructure, MCD improvements
   Dmitry Ganyushin       : Spin-Orbit,Spin-Spin,Magnetic field MRCI
   Miquel Garcia          : C-PCM and meta-GGA Hessian, CCSD/C-PCM, Gaussian charge scheme
   Tiago L. C. Gouveia    : GS-ROHF, GS-ROCIS
   Yang Guo               : DLPNO-NEVPT2, F12-NEVPT2, CIM, IAO-localization
   Andreas Hansen         : Spin unrestricted coupled pair/coupled cluster methods
   Ingolf Harden          : AUTO-CI MPn and infrastructure 
   Benjamin Helmich-Paris : MC-RPA, TRAH-(SCF,CASSCF), AVAS, COSX integrals, SCF dyn. polar.
   Lee Huntington         : MR-EOM, pCC
   Robert Izsak           : Overlap fitted RIJCOSX, COSX-SCS-MP3, EOM
   Riya Kayal             : Wick's Theorem for AUTO-CI, AUTO-CI UHF-CCSDT
   Emily Kempfer          : AUTO-CI, RHF CISDT and CCSDT
   Christian Kollmar      : KDIIS, OOCD, Brueckner-CCSD(T), CCSD density, CASPT2, CASPT2-K, improved NEVPT2
   Axel Koslowski         : Symmetry handling
   Simone Kossmann        : Meta GGA functionals, TD-DFT gradient, OOMP2, (MP2 Hessian; deprecated post 5.0)
   Lucas Lang             : DCDCAS
   Marvin Lechner         : AUTO-CI (C++ implementation), FIC-MRCC
   Spencer Leger          : CASSCF response
   Dagmar Lenk            : GEPOL surface, SMD, ORCA-2-JSON
   Dimitrios Liakos       : Extrapolation schemes; Compound Job, initial MDCI parallelization
   Dimitrios Manganas     : Further ROCIS development; embedding schemes. LFT, Crystal Embedding
   Dimitrios Pantazis     : SARC Basis sets
   Anastasios Papadopoulos: AUTO-CI, single reference methods and gradients
   Taras Petrenko         : pre 6.0 DFT Hessian and TD-DFT gradient, (ASA, deprecated), ECA, 1-Electron XAS/XES, NRVS
   Peter Pinski           : DLPNO-MP2, DLPNO-MP2 Gradient
   Christoph Reimann      : Effective Core Potentials
   Marius Retegan         : Local ZFS, SOC
   Christoph Riplinger    : Optimizer, TS searches, QM/MM, DLPNO-CCSD(T), (RO)-DLPNO pert. Triples
   Michael Roemelt        : Original ROCIS implementation
   Masaaki Saitow         : Open-shell DLPNO-CCSD energy and density
   Barbara Sandhoefer     : DKH picture change effects
   Kantharuban Sivalingam : CASSCF convergence/infrastructure, NEVPT2 and variants, FIC-MRCI
   Bernardo de Souza      : ESD, SOC TD-DFT
   Georgi Stoychev        : AutoAux, RI-MP2 NMR, DLPNO-MP2 response, X2C
   Van Anh Tran           : RI-MP2 g-tensors
   Willem Van den Heuvel  : Paramagnetic NMR
   Zikuan Wang            : NOTCH, Electric field optimization 
   Frank Wennmohs         : Technical directorship and infrastructure
   Hang Xu                : AUTO-CI-Response properties 


 We gratefully acknowledge several colleagues who have allowed us to
 interface, adapt or use parts of their codes:
   Stefan Grimme, W. Hujo, H. Kruse, P. Pracht,  : VdW corrections, initial TS optimization,
                  C. Bannwarth, S. Ehlert,         DFT functionals, gCP, sTDA/sTD-DF
                  L. Wittmann, M. Mueller
   Ed Valeev, F. Pavosevic, A. Kumar             : LibInt (2-el integral package), F12 methods
   Garnet Chan, S. Sharma, J. Yang, R. Olivares  : DMRG
   Ulf Ekstrom                                   : XCFun DFT Library
   Mihaly Kallay                                 : mrcc  (arbitrary order and MRCC methods)
   Frank Weinhold                                : gennbo (NPA and NBO analysis)
   Simon Mueller                                 : openCOSMO-RS
   Christopher J. Cramer and Donald G. Truhlar   : smd solvation model
   Lars Goerigk                                  : TD-DFT with DH, B97 family of functionals
   V. Asgeirsson, H. Jonsson                     : NEB implementation
   FAccTs GmbH                                   : IRC, NEB, NEB-TS, DLPNO-Multilevel, CI-OPT
                                                   MM, QMMM, 2- and 3-layer-ONIOM, Crystal-QMMM,
                                                   LR-CPCM, SF, NACMEs, symmetry and pop. for TD-DFT,
                                                   nearIR, NL-DFT gradient (VV10), updates on ESD,
                                                   ML-optimized integration grids, MBIS, APM,
                                                   GOAT, DOCKER, SOLVATOR, interface openCOSMO-RS
   S Lehtola, MJT Oliveira, MAL Marques          : LibXC Library
   Liviu Ungur et al                             : ANISO software


 Your calculation uses the libint2 library for the computation of 2-el integrals
 For citations please refer to: http://libint.valeyev.net

 Your ORCA version has been built with support for libXC version: 6.2.2
 For citations please refer to: https://libxc.gitlab.io

 This ORCA versions uses:
   CBLAS   interface :  Fast vector & matrix operations
   LAPACKE interface :  Fast linear algebra routines
   SCALAPACK package :  Parallel linear algebra routines
   Shared memory     :  Shared parallel matrices
   BLAS/LAPACK       :  OpenBLAS 0.3.27  USE64BITINT DYNAMIC_ARCH NO_AFFINITY SapphireRapids SINGLE_THREADED
        Core in use  :  SapphireRapids
   Copyright (c) 2011-2014, The OpenBLAS Project




***************************************
The coordinates will be read from file: xtb_opt.xyz
***************************************


Your calculation utilizes the geometrical counterpoise correction gCP
Please cite in your paper:
H.Kruse, S. Grimme J.Chem.Phys., 136, (2012), 154101 
   

Your calculation utilizes the atom-pairwise dispersion correction
based on EEQ partial charges (D4)


Your calculation utilizes the SMD solvation module
Please cite in your paper:
A.V. Marenich, C.J. Cramer, D.G. Truhlar J. Phys. Chem. B, 113, (2009), 6378 

================================================================================

----- Orbital basis set information -----
Your calculation utilizes the basis: def2-mTZVPP
   Stefan Grimme, Andreas Hansen, Sebastian Ehlert, and Jan-Michael Mewes 
   J. Chem. Phys. 154, 064103 (2021). DOI: 10.1063/5.0040021

----- AuxJ basis set information -----
Your calculation utilizes the auxiliary basis: def2/J
   F. Weigend, Phys. Chem. Chem. Phys. 8, 1057 (2006).

================================================================================
                                        WARNINGS
                       Please study these warnings very carefully!
================================================================================

WARNING: Old DensityContainer found on disk!
         Will remove this file - 
         If you want to keep old densities, please start your calculation with a different basename. 

Using LibXC functional ID 497 : Re-regularized SCAN exchange by Furness et al
[ 1]  J. W. Furness, A. D. Kaplan, J. Ning, J. P. Perdew, and J. Sun.,  J. Phys. Chem. Lett. 11, 8208-8215 (2020)
[ 2]  J. W. Furness, A. D. Kaplan, J. Ning, J. P. Perdew, and J. Sun.,  J. Phys. Chem. Lett. 11, 9248-9248 (2020)
Using LibXC functional ID 498 : Re-regularized SCAN correlation by Furness et al
[ 1]  J. W. Furness, A. D. Kaplan, J. Ning, J. P. Perdew, and J. Sun.,  J. Phys. Chem. Lett. 11, 8208-8215 (2020)
[ 2]  J. W. Furness, A. D. Kaplan, J. Ning, J. P. Perdew, and J. Sun.,  J. Phys. Chem. Lett. 11, 9248-9248 (2020)
Using LibXC functional ID 497 : Re-regularized SCAN exchange by Furness et al
[ 1]  J. W. Furness, A. D. Kaplan, J. Ning, J. P. Perdew, and J. Sun.,  J. Phys. Chem. Lett. 11, 8208-8215 (2020)
[ 2]  J. W. Furness, A. D. Kaplan, J. Ning, J. P. Perdew, and J. Sun.,  J. Phys. Chem. Lett. 11, 9248-9248 (2020)
Using LibXC functional ID 498 : Re-regularized SCAN correlation by Furness et al
[ 1]  J. W. Furness, A. D. Kaplan, J. Ning, J. P. Perdew, and J. Sun.,  J. Phys. Chem. Lett. 11, 8208-8215 (2020)
[ 2]  J. W. Furness, A. D. Kaplan, J. Ning, J. P. Perdew, and J. Sun.,  J. Phys. Chem. Lett. 11, 9248-9248 (2020)

================================================================================
                                       INPUT FILE
================================================================================
NAME = xtb_opt.inp
|  1> ! r2scan-3c def2/J RI DEFGRID2 scfconv7 ENGRAD tightSCF miniprint
|  2> %cpcm
|  3>     smd true
|  4>     smdsolvent "water"
|  5> end
|  6> * xyzfile 0 1 xtb_opt.xyz
|  7> 
|  8>                          ****END OF INPUT****
================================================================================

                     *******************************
                     * Energy+Gradient Calculation *
                     *******************************

---------------------------------
CARTESIAN COORDINATES (ANGSTROEM)
---------------------------------
  C      2.877672   -1.282447    3.182763
  C      1.601669   -1.393227    2.386053
  O      1.482381   -0.309240    1.400180
  P      2.338296   -0.293475    0.043231
  S      2.827629   -2.012765   -0.728072
  O      3.542114    0.693523    0.466450
  C      4.679093    0.913247   -0.437498
  C      5.601897    1.892812    0.239994
  S      1.185283    0.990932   -1.185326
  C      0.116103   -0.217681   -2.060818
  S     -1.034985   -1.220092   -1.040852
  P     -2.301348    0.286135   -0.256578
  S     -2.685223    1.793198   -1.427534
  O     -1.609403    0.606121    1.156336
  C     -1.870197    1.859347    1.881877
  C     -3.242215    1.868043    2.508732
  O     -3.555544   -0.605133    0.229147
  C     -4.581672   -1.038249   -0.728616
  C     -5.589640   -1.853355    0.039583
  H      3.758945   -1.424728    2.549975
  H      2.947250   -0.309946    3.678271
  H      2.880621   -2.063640    3.949897
  H      0.717307   -1.262727    3.013108
  H      1.526687   -2.348527    1.857527
  H      5.165891   -0.050728   -0.613553
  H      4.299722    1.304671   -1.387705
  H      5.955341    1.497190    1.196628
  H      6.469235    2.063831   -0.404790
  H      5.102811    2.850877    0.410417
  H      0.742010   -0.944622   -2.586322
  H     -0.452453    0.370327   -2.787054
  H     -1.080038    1.883848    2.634996
  H     -1.727641    2.693462    1.187981
  H     -3.375566    1.008397    3.171523
  H     -3.350613    2.782720    3.100674
  H     -4.030601    1.859856    1.750115
  H     -5.032811   -0.145616   -1.172251
  H     -4.098421   -1.627657   -1.515275
  H     -5.124742   -2.738727    0.482117
  H     -6.050316   -1.256175    0.831733
  H     -6.375670   -2.181777   -0.647097

----------------------------
CARTESIAN COORDINATES (A.U.)
----------------------------
  NO LB      ZA    FRAG     MASS         X           Y           Z
   0 C     6.0000    0    12.011    5.438012   -2.423474    6.014550
   1 C     6.0000    0    12.011    3.026716   -2.632818    4.508986
   2 O     8.0000    0    15.999    2.801293   -0.584378    2.645958
   3 P    15.0000    0    30.974    4.418739   -0.554587    0.081695
   4 S    16.0000    0    32.060    5.343445   -3.803575   -1.375857
   5 O     8.0000    0    15.999    6.693625    1.310568    0.881463
   6 C     6.0000    0    12.011    8.842205    1.725786   -0.826752
   7 C     6.0000    0    12.011   10.586052    3.576895    0.453522
   8 S    16.0000    0    32.060    2.239860    1.872591   -2.239942
   9 C     6.0000    0    12.011    0.219404   -0.411357   -3.894382
  10 S    16.0000    0    32.060   -1.955839   -2.305640   -1.966925
  11 P    15.0000    0    30.974   -4.348918    0.540717   -0.484862
  12 S    16.0000    0    32.060   -5.074337    3.388654   -2.697648
  13 O     8.0000    0    15.999   -3.041331    1.145403    2.185159
  14 C     6.0000    0    12.011   -3.534161    3.513657    3.556232
  15 C     6.0000    0    12.011   -6.126899    3.530090    4.740816
  16 O     8.0000    0    15.999   -6.719005   -1.143535    0.433024
  17 C     6.0000    0    12.011   -8.658105   -1.962006   -1.376884
  18 C     6.0000    0    12.011  -10.562888   -3.502333    0.074800
  19 H     1.0000    0     1.008    7.103377   -2.692345    4.818754
  20 H     1.0000    0     1.008    5.569495   -0.585713    6.950926
  21 H     1.0000    0     1.008    5.443586   -3.899714    7.464224
  22 H     1.0000    0     1.008    1.355513   -2.386208    5.693948
  23 H     1.0000    0     1.008    2.885020   -4.438074    3.510217
  24 H     1.0000    0     1.008    9.762119   -0.095862   -1.159447
  25 H     1.0000    0     1.008    8.125298    2.465470   -2.622382
  26 H     1.0000    0     1.008   11.253964    2.829279    2.261300
  27 H     1.0000    0     1.008   12.225082    3.900075   -0.764942
  28 H     1.0000    0     1.008    9.642916    5.387376    0.775575
  29 H     1.0000    0     1.008    1.402195   -1.785077   -4.887441
  30 H     1.0000    0     1.008   -0.855012    0.699816   -5.266769
  31 H     1.0000    0     1.008   -2.040975    3.559958    4.979421
  32 H     1.0000    0     1.008   -3.264769    5.089906    2.244959
  33 H     1.0000    0     1.008   -6.378894    1.905594    5.993310
  34 H     1.0000    0     1.008   -6.331741    5.258579    5.859426
  35 H     1.0000    0     1.008   -7.616732    3.514619    3.307239
  36 H     1.0000    0     1.008   -9.510635   -0.275174   -2.215234
  37 H     1.0000    0     1.008   -7.744894   -3.075826   -2.863456
  38 H     1.0000    0     1.008   -9.684360   -5.175444    0.911070
  39 H     1.0000    0     1.008  -11.433439   -2.373826    1.571747
  40 H     1.0000    0     1.008  -12.048270   -4.122961   -1.222835

------------------------------------------------------------------------------
                   ___                                                        
                  /   \      - P O W E R E D   B Y -                         
                 /     \                                                     
                 |  |  |   _    _      __       _____    __    __             
                 |  |  |  | |  | |    /  \     |  _  \  |  |  /  |          
                  \  \/   | |  | |   /    \    | | | |  |  | /  /          
                 / \  \   | |__| |  /  /\  \   | |_| |  |  |/  /          
                |  |  |   |  __  | /  /__\  \  |    /   |      \           
                |  |  |   | |  | | |   __   |  |    \   |  |\   \          
                \     /   | |  | | |  |  |  |  | |\  \  |  | \   \       
                 \___/    |_|  |_| |__|  |__|  |_| \__\ |__|  \__/        
                                                                              
                      - O R C A' S   B I G   F R I E N D -                    
                                      &                                       
                       - I N T E G R A L  F E E D E R -                       
                                                                              
 v1 FN, 2020, v2 2021, v3 2022-2024                                           
------------------------------------------------------------------------------


----------------------
SHARK INTEGRAL PACKAGE
----------------------

Number of atoms                             ...     41
Number of basis functions                   ...    539
Number of shells                            ...    253
Maximum angular momentum                    ...      2
Integral batch strategy                     ... SHARK/LIBINT Hybrid
RI-J (if used) integral strategy            ... SPLIT-RIJ (Revised 2003 algorithm where possible)
Printlevel                                  ...      1
Contraction scheme used                     ... SEGMENTED contraction
Prescreening option                         ... SCHWARTZ
   Thresh                                   ... 3.000e-11
   Tcut                                     ... 1.000e-12
   Tpresel                                  ... 1.000e-12 
Coulomb Range Separation                    ... NOT USED
Exchange Range Separation                   ... NOT USED
Multipole approximations                    ... NOT USED
Finite Nucleus Model                        ... NOT USED
CABS basis                                  ... NOT available
Auxiliary Coulomb fitting basis             ... AVAILABLE
   # of basis functions in Aux-J            ...   1185
   # of shells in Aux-J                     ...    407
   Maximum angular momentum in Aux-J        ...      4
Auxiliary J/K fitting basis                 ... NOT available
Auxiliary Correlation fitting basis         ... NOT available
Auxiliary 'external' fitting basis          ... NOT available

Checking pre-screening integrals            ... done (  0.0 sec) Dimension = 253
Check shell pair data                       ... done (  0.0 sec)
Shell pair information
Shell pair cut-off parameter TPreSel        ...   1.0e-12
Total number of shell pairs                 ...     32131
Shell pairs after pre-screening             ...     21014
Total number of primitive shell pairs       ...    124843
Primitive shell pairs kept                  ...     49255
          la=0 lb=0:   5902 shell pairs
          la=1 lb=0:   7628 shell pairs
          la=1 lb=1:   2509 shell pairs
          la=2 lb=0:   2820 shell pairs
          la=2 lb=1:   1806 shell pairs
          la=2 lb=2:    349 shell pairs

Calculating one electron integrals          ... done (  0.3 sec)
Calculating RI/J V-Matrix + Cholesky decomp.... done (  0.1 sec)
[...]
CPCM gradient                     ... done (  7.9 sec)
SMD gradient                      ... done (  0.0 sec)
Dispersion correction             ... done (  0.0 sec)

-------------------
DISPERSION GRADIENT
-------------------

   1   C   :    0.000035895   -0.000053078    0.000146975
   2   C   :    0.000041581   -0.000091890    0.000138979
   3   O   :    0.000060167   -0.000040614    0.000109993
   4   P   :    0.000169641   -0.000073782   -0.000051135
   5   S   :    0.000138056   -0.000243697   -0.000122051
   6   O   :    0.000092272    0.000056967   -0.000002652
   7   C   :    0.000113433    0.000053550   -0.000042572
   8   C   :    0.000112372    0.000082727    0.000004749
   9   S   :    0.000082711    0.000122869   -0.000227469
  10   C   :    0.000008438   -0.000016395   -0.000158483
  11   S   :   -0.000058844   -0.000167311   -0.000203565
  12   P   :   -0.000163438    0.000062284   -0.000083099
  13   S   :   -0.000120115    0.000212306   -0.000185121
  14   O   :   -0.000071121    0.000063888    0.000093305
  15   C   :   -0.000053892    0.000117662    0.000111169
  16   C   :   -0.000051901    0.000081648    0.000127226
  17   O   :   -0.000091691   -0.000056730   -0.000000807
  18   C   :   -0.000108320   -0.000064146   -0.000043584
  19   C   :   -0.000114043   -0.000082499    0.000008903
  20   H   :    0.000010866   -0.000027485    0.000058610
  21   H   :    0.000008101   -0.000007740    0.000064008
  22   H   :    0.000007203   -0.000016747    0.000044890
  23   H   :    0.000011608   -0.000033760    0.000077210
  24   H   :    0.000014228   -0.000048959    0.000047769
  25   H   :    0.000053309    0.000007292   -0.000014930
  26   H   :    0.000044409    0.000033659   -0.000017593
  27   H   :    0.000044938    0.000031261    0.000006374
  28   H   :    0.000030371    0.000020068   -0.000002174
  29   H   :    0.000037009    0.000036744    0.000005668
  30   H   :    0.000005392   -0.000022756   -0.000058534
  31   H   :    0.000001041    0.000010179   -0.000062052
  32   H   :   -0.000018279    0.000048147    0.000065700
  33   H   :   -0.000017838    0.000056956    0.000034646
  34   H   :   -0.000015140    0.000020975    0.000060121
  35   H   :   -0.000012341    0.000025570    0.000039436
  36   H   :   -0.000017364    0.000039131    0.000049555
  37   H   :   -0.000051376   -0.000011491   -0.000019599
  38   H   :   -0.000042534   -0.000038053   -0.000014888
  39   H   :   -0.000037993   -0.000035608    0.000009042
  40   H   :   -0.000046545   -0.000030431    0.000007325
  41   H   :   -0.000030265   -0.000020710   -0.000001346

Difference to translation invariance:
           :    0.0000000000   -0.0000000000    0.0000000000

Difference to rotation invariance:
           :    0.0000000000    0.0000000000   -0.0000000000

Norm of the Dispersion gradient    ...    0.0008705030
RMS gradient                       ...    0.0000784906
MAX gradient                       ...    0.0002436972
gCP correction                   ... done

------------------
CARTESIAN GRADIENT
------------------

   1   C   :   -0.000003536    0.000004277   -0.000011080
   2   C   :   -0.000012743   -0.000052213    0.000043992
   3   O   :    0.000030241    0.000042521   -0.000099413
   4   P   :    0.000119966    0.000081963    0.000070960
   5   S   :    0.000008822   -0.000024720    0.000002732
   6   O   :   -0.000307145   -0.000072470    0.000046955
   7   C   :    0.000174939    0.000041969   -0.000020471
   8   C   :    0.000028017   -0.000055221   -0.000070160
   9   S   :   -0.000086029   -0.000053025    0.000044825
  10   C   :   -0.000022666    0.000018200    0.000001572
  11   S   :    0.000096128    0.000026689    0.000069296
  12   P   :   -0.000140813   -0.000075409    0.000053287
  13   S   :   -0.000020579    0.000047250    0.000015712
  14   O   :   -0.000001972   -0.000120506   -0.000108204
  15   C   :    0.000008455    0.000078714    0.000034883
  16   C   :   -0.000019478    0.000002061   -0.000017193
  17   O   :    0.000271136    0.000098187    0.000040914
  18   C   :   -0.000157452   -0.000047354   -0.000058053
  19   C   :    0.000001502    0.000024903   -0.000024147
  20   H   :   -0.000006718   -0.000026000    0.000027208
  21   H   :    0.000019576   -0.000031041   -0.000009151
  22   H   :    0.000000046   -0.000000252    0.000002083
  23   H   :   -0.000011006    0.000002645   -0.000032180
  24   H   :    0.000019365   -0.000007222   -0.000015880
  25   H   :   -0.000014893   -0.000064483   -0.000019560
  26   H   :   -0.000031756    0.000055875   -0.000084082
  27   H   :    0.000030335   -0.000070119    0.000095954
  28   H   :    0.000032234    0.000030075   -0.000001013
  29   H   :   -0.000036003    0.000061479    0.000042147
  30   H   :    0.000016571   -0.000025061   -0.000012709
  31   H   :   -0.000006279    0.000006957   -0.000023263
  32   H   :   -0.000008345    0.000026367   -0.000019185
  33   H   :   -0.000013716   -0.000006763   -0.000032282
  34   H   :   -0.000015566    0.000040021   -0.000028669
  35   H   :    0.000020691   -0.000015905    0.000002810
  36   H   :    0.000022853    0.000051431    0.000048110
  37   H   :    0.000026769    0.000029994   -0.000009509
  38   H   :    0.000020236   -0.000028419   -0.000026566
  39   H   :    0.000006082   -0.000016428    0.000028985
  40   H   :   -0.000016816    0.000042333    0.000034543
  41   H   :   -0.000020452   -0.000021299    0.000015805

Difference to translation invariance:
           :   -0.0000000000   -0.0000000000    0.0000000000

Difference to rotation invariance:
           :   -0.0000628925    0.0001765005   -0.0014313952

Norm of the Cartesian gradient     ...    0.0006814139
RMS gradient                       ...    0.0000614410
MAX gradient                       ...    0.0003071451

-------
TIMINGS
-------

Total SCF gradient time     ....       46.263 sec

Densities                   ....       0.007 sec  (  0.0%)
One electron gradient       ....       2.115 sec  (  4.6%)
RI-J Coulomb gradient       ....       9.200 sec  ( 19.9%)
XC gradient                 ....      21.238 sec  ( 45.9%)
CPCM gradient               ....       7.850 sec  ( 17.0%)
   A-Matrix (El+Nuc)        ....       0.271 sec  (  0.6%)
   Potential                ....       7.579 sec  ( 16.4%)
SMD gradient                ....       0.016 sec  (  0.0%)

Maximum memory used throughout the entire SCFGRAD-calculation: 83.2 MB

------------------------------------------------------------------------------
                              ORCA PROPERTY CALCULATIONS
------------------------------------------------------------------------------

GBWName                                 ... xtb_opt.gbw
Number of atoms                         ...     41
Number of basis functions               ...    539
Max core memory                         ...   1024 MB

Electric properties:
Dipole moment                           ... YES
Quadrupole moment                       ...  NO
Static polarizability (Dipole/Dipole)   ...  NO
Static polarizability (Dipole/Quad.)    ...  NO
Static polarizability (Quad./Quad.)     ...  NO
Static polarizability (Velocity)        ...  NO

Atomic electric properties:
Dipole moment                           ...  NO
Quadrupole moment                       ...  NO
Static polarizability                   ...  NO

Choice of electric origin               ... Center of mass
Position of electric origin             ...     0.011449     0.012503     0.040207

General magnetic properties:
Magnetizability                         ...  NO

EPR properties:
g-Tensor (aka g-matrix)                 ...  NO
Zero-Field splitting spin-orbit         ...  NO
Zero-field splitting spin-spin          ...  NO
Hyperfine couplings                     ...  NO (   0 nuclei)
Quadrupole couplings                    ...  NO (   0 nuclei)
Contact density                         ...  NO (   0 nuclei)

NMR properties:
Chemical shifts                         ...  NO (   0 nuclei)
Spin-rotation constants                 ...  NO (   0 nuclei)
Spin-spin couplings                     ...  NO (   0 nuclei,    0 pairs)

Choice of magnetic origin               ... GIAO
Position of magnetic origin             ...     0.000000     0.000000     0.000000

Properties with geometric perturbations:
SCF Hessian                             ...  NO
IR spectrum                             ...  NO
VCD spectrum                            ...  NO
X-ray spectroscopy properties:
SCF XES/XAS/RIXS spectra                ...  NO


-------------
DIPOLE MOMENT
-------------

Method             : SCF
Type of density    : Electron Density
Multiplicity       :   1
Irrep              :   0
Energy             : -2932.5103077025996754 Eh
Relativity type    : 
Basis              : AO
                                X                 Y                 Z
Electronic contribution:      1.134356742      -1.653533522     -16.506643403
Nuclear contribution   :     -1.224071332       1.739268484      17.513301004
                        -----------------------------------------
Total Dipole Moment    :     -0.089714590       0.085734962       1.006657600
                        -----------------------------------------
Magnitude (a.u.)       :      1.014277435
Magnitude (Debye)      :      2.578088356



--------------------
Rotational spectrum 
--------------------
 
Rotational constants in cm-1:             0.012672             0.004240             0.004194 
Rotational constants in MHz :           379.894149           127.120547           125.725360 

Dipole components along the rotational axes: 
x,y,z [a.u.] :    -0.039293     1.013491     0.007104 
x,y,z [Debye]:    -0.099874     2.576090     0.018056 

 

Dipole moment calculation done in   0.7 sec 

Maximum memory used throughout the entire PROP-calculation: 51.1 MB

--------------------------------
SUGGESTED CITATIONS FOR THIS RUN
--------------------------------

Below you find a list of papers that are relevant to this ORCA run
We neither can nor want to force you to cite these papers, but we appreciate if you do
You receive ORCA, which is the product of decades of hard work by many enthusiastic individuals, for free
The only thing we kindly ask in return is that you cite our papers,
We deeply appreciate it, if you show your appreciation for ORCA by not just citing the generic ORCA reference.

Please note that relegating all ORCA citations to the supporting information does *not* help us.
SI sections are not indexed - citations you put there will not count into any citation statistics
But we need these citations in order to attract the funding resources that allow us to do what we are doing

Therefore, if you are a happy ORCA user, please consider citing a few of the papers listed below in the main body of your paper

In addition to the list printed below, the program has created the file xtb_opt.bibtex that contains the list in bibtex format
You can import this file easily into all common literature databanks and citation aid programs


List of essential papers. We consider these as the minimum necessary citations

  1. Neese,F.
     Software update: the ORCA program system, version 5.0
     WIRES Comput. Molec. Sci., 2022 12(1)e1606
     doi.org/10.1002/wcms.1606
  2. Grimme,S.; Hansen,A.; Ehlert,S.; Mewes,J.
     r2SCAN-3c: A 'Swiss army knife' composite electronic-structure method
     J. Chem. Phys., 2021 154 064103
     doi.org/10.1063/5.0040021

List of papers to cite with high priority. The work reported in these papers was absolutely
necessary for this run to complete.
Our perspective: the developers of density functionals and basis sets usually get cited in chemistry papers
Good! But without the algorithms to do something with them, the functionals or basis sets would not do anything.
Hence, in our opinion, the algorithm design and method developments papers are equally worthy of getting cited

  1. Neese,F.
     An improvement of the resolution of the identity approximation for the formation of the Coulomb matrix
     J. Comp. Chem., 2003 24(14)1740-1747
     doi.org/10.1002/jcc.10318
  2. Garcia-Rates,M.; Neese,F.
     Effect of the Solute Cavity on the Solvation Energy and its Derivatives within the Framework of the Gaussian Charge Scheme
     J. Comput. Chem., 2020 41 922-939
     doi.org/10.1002/jcc.26139
  3. Neese,F.
     The SHARK Integral Generation and Digestion System
     J. Comp. Chem., 2022  1-16
     doi.org/10.1002/jcc.26942
  4. Lehtola,S.; Steigemann,C.; Oliveira,M.; Marques,M.
     Recent developments in Libxc - A comprehensive library of functionals for density functional theory
     Software X, 2018 7 
     doi.org/10.1016/j.softx.2017.11.002
  5. Caldeweyher,E.; Bannwarth,C.; Grimme,S.
     Extension of the D3 dispersion coefficient model
     J. Chem. Phys., 2017 147 034112-XXXX
     doi.org/10.1063/1.4993215
  6. Caldeweyher,E.; Ehlert,S.; Hansen,A.; Neugebauer,H.; Spicher,S.; Bannwarth,C.; Grimme,S.
     A generally applicable atomic-charge dependent London dispersion correction
     J. Chem. Phys., 2019 150 154122-XXXX
     doi.org/10.1063/1.5090222
  7. Caldeweyher,E.; Mewes,J.; Ehlert,S.; Grimme,S.
     Extension and evaluation of the D4 London-dispersion model for periodic systems
     Phys. Chem. Chem. Phys., 2020 22(16)8499-8512
     doi.org/10.1039/D0CP00502A

List of suggested additional citations. These are papers that are important in the 'surrounding' of 
of this run, or papers that preceded the highly important papers. If you like your results we are grateful for a citation.

  1. Neese,F.
     The ORCA program system
     WIRES Comput. Molec. Sci., 2012 2(1)73-78
     doi.org/10.1002/wcms.81
  2. Neese,F.
     Software update: the ORCA program system, version 4.0
     WIRES Comput. Molec. Sci., 2018 8(1)1-6
     doi.org/10.1002/wcms.1327
  3. Neese,F.; Wennmohs,F.; Becker,U.; Riplinger,C.
     The ORCA quantum chemistry program package
     J. Chem. Phys., 2020 152 Art. No. L224108
     doi.org/10.1063/5.0004608

List of optional additional citations

  1. Neese,F.
     Approximate second-order SCF convergence for spin unrestricted wavefunctions
     Chem. Phys. Lett., 2000 325(1-3)93-98
     doi.org/10.1016/s0009-2614(00)00662-x

Timings for individual modules:

Sum of individual times          ...       97.003 sec (=   1.617 min)
Startup calculation              ...        3.135 sec (=   0.052 min)   3.2 %
SCF iterations                   ...       46.604 sec (=   0.777 min)  48.0 %
Property calculations            ...        0.840 sec (=   0.014 min)   0.9 %
SCF Gradient evaluation          ...       46.424 sec (=   0.774 min)  47.9 %
                             ****ORCA TERMINATED NORMALLY****
TOTAL RUN TIME: 0 days 0 hours 1 minutes 37 seconds 887 msec
  ------------------------------------------------------------------------
          * successful ORCA run, taking over control again...

         :::::::::::::::::::::::::::::::::::::::::::::::::::::
         ::                  ORCA SUMMARY                   ::
         :::::::::::::::::::::::::::::::::::::::::::::::::::::
         :: total energy           -2932.485619026953 Eh    ::
         :: gradient norm              0.000681413926 Eh/a0 ::
         :: HOMO-LUMO gap              0.000000000000 eV    ::
         :::::::::::::::::::::::::::::::::::::::::::::::::::::

           -------------------------------------------------
          |                Property Printout                |
           -------------------------------------------------
           -------------------------------------------------
          |                Geometry Summary                 |
           -------------------------------------------------

      molecular mass/u    :      384.4756129
   center of mass at/Å    :        0.0060621       0.0066100       0.0212172
  moments of inertia/u·Å² :        0.1330365E+04   0.3975670E+04   0.4019762E+04
rotational constants/cm⁻¹ :        0.1267143E-01   0.4240199E-02   0.4193690E-02

 * 34 selected distances

     #   Z          #   Z                                           value/Å
     1   6 C        2   6 C                                       1.5083950
     3   8 O        4  15 P                                       1.6040470
     4  15 P        5  16 S                                       1.9470255
     4  15 P        6   8 O                                       1.6123750
     7   6 C        8   6 C                                       1.5062564
     4  15 P        9  16 S                                       2.1192862 (max)
    11  16 S       12  15 P                                       2.1184513
    12  15 P       13  16 S                                       1.9468539
    12  15 P       14   8 O                                       1.6051236
    15   6 C       16   6 C                                       1.5084660
    12  15 P       17   8 O                                       1.6125232
    18   6 C       19   6 C                                       1.5064037
     1   6 C       20   1 H                                       1.0941869
     1   6 C       21   1 H                                       1.0936810
     1   6 C       22   1 H                                       1.0949436
     2   6 C       23   1 H                                       1.0918929
     2   6 C       24   1 H                                       1.0943307
     7   6 C       25   1 H                                       1.0940205
     7   6 C       26   1 H                                       1.0953755
     8   6 C       27   1 H                                       1.0938760
     8   6 C       28   1 H                                       1.0942246
     8   6 C       29   1 H                                       1.0936465
    10   6 C       30   1 H                                       1.0938955
    10   6 C       31   1 H                                       1.0939121
    15   6 C       32   1 H                                       1.0917637 (min)
    15   6 C       33   1 H                                       1.0943075
    16   6 C       34   1 H                                       1.0936479
    16   6 C       35   1 H                                       1.0949583
    16   6 C       36   1 H                                       1.0940494
    18   6 C       37   1 H                                       1.0939978
    18   6 C       38   1 H                                       1.0952812
    19   6 C       39   1 H                                       1.0935643
    19   6 C       40   1 H                                       1.0937517
    19   6 C       41   1 H                                       1.0941845

 * 4 distinct bonds (by element types)

   Z      Z             #   av. dist./Å        max./Å        min./Å
   1 H    6 C          22     1.0939769     1.0953755     1.0917637
   6 C    6 C           4     1.5073803     1.5084660     1.5062564
   8 O   15 P           4     1.6085172     1.6125232     1.6040470
  15 P   16 S           4     2.0329042     2.1192862     1.9468539


optimized geometry written to: xtbopt.coord


           -------------------------------------------------
          | TOTAL ENERGY            -2932.485619026953 Eh   |
          | GRADIENT NORM               0.000681413926 Eh/α |
           -------------------------------------------------

------------------------------------------------------------------------
 * finished run on 2025/04/10 at 17:23:46.629     
------------------------------------------------------------------------
 total:
 * wall-time:     0 d,  0 h, 11 min, 18.043 sec
 *  cpu-time:     0 d,  0 h,  0 min,  3.433 sec
 * ratio c/w:     0.005 speedup
 SCF:
 * wall-time:     0 d,  0 h,  1 min, 21.468 sec
 *  cpu-time:     0 d,  0 h,  0 min,  0.335 sec
 * ratio c/w:     0.004 speedup
 ANC optimizer:
 * wall-time:     0 d,  0 h,  9 min, 56.493 sec
 *  cpu-time:     0 d,  0 h,  0 min,  3.057 sec
 * ratio c/w:     0.005 speedup

