      -----------------------------------------------------------      
     |                   =====================                   |     
     |                           x T B                           |     
     |                   =====================                   |     
     |                         S. Grimme                         |     
     |          Mulliken Center for Theoretical Chemistry        |     
     |                    University of Bonn                     |     
      -----------------------------------------------------------      

   * xtb version 6.7.1 (edcfbbe) compiled by 'albert@albert-system' on 2024-07-22

   xtb is free software: you can redistribute it and/or modify it under
   the terms of the GNU Lesser General Public License as published by
   the Free Software Foundation, either version 3 of the License, or
   (at your option) any later version.
   
   xtb is distributed in the hope that it will be useful,
   but WITHOUT ANY WARRANTY; without even the implied warranty of
   MERCHANTABILITY or FITNESS FOR A PARTICULAR PURPOSE.  See the
   GNU Lesser General Public License for more details.
   
   Cite this work as:
   * C. Bannwarth, E. Caldeweyher, S. Ehlert, A. Hansen, P. Pracht,
     J. Seibert, S. Spicher, S. Grimme, WIREs Comput. Mol. Sci., 2020, 11,
     e01493. DOI: 10.1002/wcms.1493
   
   for GFN2-xTB:
   * C. Bannwarth, S. Ehlert and S. Grimme., J. Chem. Theory Comput., 2019,
     15, 1652-1671. DOI: 10.1021/acs.jctc.8b01176
   for GFN1-xTB:
   * S. Grimme, C. Bannwarth, P. Shushkov, J. Chem. Theory Comput., 2017,
     13, 1989-2009. DOI: 10.1021/acs.jctc.7b00118
   for GFN0-xTB:
   * P. Pracht, E. Caldeweyher, S. Ehlert, S. Grimme, ChemRxiv, 2019, preprint.
     DOI: 10.26434/chemrxiv.8326202.v1
   for GFN-FF:
   * S. Spicher and S. Grimme, Angew. Chem. Int. Ed., 2020, 59, 15665-15673.
     DOI: 10.1002/anie.202004239
   
   for ALPB and GBSA implicit solvation:
   * S. Ehlert, M. Stahn, S. Spicher, S. Grimme, J. Chem. Theory Comput.,
     2021, 17, 4250-4261. DOI: 10.1021/acs.jctc.1c00471
   
   for ddCOSMO and CPCM-X implicit solvation:
   * M. Stahn, S. Ehlert, S. Grimme, J. Phys. Chem. A,
     2023, XX, XXXX-XXXX. DOI: 10.1021/acs.jpca.3c04382
   
   for DFT-D4:
   * E. Caldeweyher, C. Bannwarth and S. Grimme, J. Chem. Phys., 2017,
     147, 034112. DOI: 10.1063/1.4993215
   * E. Caldeweyher, S. Ehlert, A. Hansen, H. Neugebauer, S. Spicher,
     C. Bannwarth and S. Grimme, J. Chem. Phys., 2019, 150, 154122.
     DOI: 10.1063/1.5090222
   * E. Caldeweyher, J.-M. Mewes, S. Ehlert and S. Grimme, Phys. Chem. Chem. Phys.
     2020, 22, 8499-8512. DOI: 10.1039/D0CP00502A
   
   for sTDA-xTB:
   * S. Grimme and C. Bannwarth, J. Chem. Phys., 2016, 145, 054103.
     DOI: 10.1063/1.4959605
   
   in the mass-spec context:
   * V. Asgeirsson, C. Bauer and S. Grimme, Chem. Sci., 2017, 8, 4879.
     DOI: 10.1039/c7sc00601b
   * J. Koopman and S. Grimme, ACS Omega 2019, 4, 12, 15120-15133.
     DOI: 10.1021/acsomega.9b02011
   
   for metadynamics refer to:
   * S. Grimme, J. Chem. Theory Comput., 2019, 155, 2847-2862
     DOI: 10.1021/acs.jctc.9b00143
   
   for SPH calculations refer to:
   * S. Spicher and S. Grimme, J. Chem. Theory Comput., 2021, 17, 1701-1714
     DOI: 10.1021/acs.jctc.0c01306
   
   for ONIOM refer to:
   * C. Plett, A. Katbashev, S. Ehlert, S. Grimme, M. Bursch,
     Phys. Chem. Chem. Phys., 2023, 25, 17860-17868. DOI: 10.1039/D3CP02178E
   
   for DIPRO refer to:
   * J. Kohn, N. Gildemeister, S. Grimme, D. Fazzi, A. Hansen,
     J. Chem. Phys., 2023, just accepted.
   
   for PTB refer to:
   * S. Grimme, M. Mueller, A. Hansen, J. Chem. Phys., 2023, 158, 124111.
     DOI: 10.1063/5.0137838
   
   with help from (in alphabetical order)
   P. Atkinson, C. Bannwarth, F. Bohle, G. Brandenburg, E. Caldeweyher
   M. Checinski, S. Dohm, S. Ehlert, S. Ehrlich, I. Gerasimov, C. Hölzer
   A. Katbashev, J. Kohn, J. Koopman, C. Lavigne, S. Lehtola, F. März, M. Müller,
   F. Musil, H. Neugebauer, J. Pisarek, C. Plett, P. Pracht, F. Pultar,
   J. Seibert, P. Shushkov, S. Spicher, M. Stahn, M. Steiner, T. Strunk,
   J. Stückrath, T. Rose, and J. Unsleber
   
 * started run on 2025/04/09 at 05:21:16.125     
   ID    Z sym.   atoms
    1    6 C      1, 2, 7, 8, 10, 15, 16, 18, 19
    2    8 O      3, 6, 14, 17
    3   15 P      4, 12
    4   16 S      5, 9, 11, 13
    5    1 H      20-41

           -------------------------------------------------
          |                Calculation Setup                |
           -------------------------------------------------

          program call               : /srv/scratch/z5358697/.xtb/bin/xtb gas.coord --gfn2 --sp --chrg 0 --norestart --parallel 1
          hostname                   : k163
          coordinate file            : gas.coord
          omp threads                :                     1


           -------------------------------------------------
          |                 G F N 2 - x T B                 |
           -------------------------------------------------

        Reference                      10.1021/acs.jctc.8b01176
      * Hamiltonian:
        H0-scaling (s, p, d)           1.850000    2.230000    2.230000
        zeta-weighting                 0.500000
      * Dispersion:
        s8                             2.700000
        a1                             0.520000
        a2                             5.000000
        s9                             5.000000
      * Repulsion:
        kExp                           1.500000    1.000000
        rExp                           1.000000
      * Coulomb:
        alpha                          2.000000
        third order                    shell-resolved
        anisotropic                    true
        a3                             3.000000
        a5                             4.000000
        cn-shift                       1.200000
        cn-exp                         4.000000
        max-rad                        5.000000


          ...................................................
          :                      SETUP                      :
          :.................................................:
          :  # basis functions                 134          :
          :  # atomic orbitals                 128          :
          :  # shells                           66          :
          :  # electrons                       116          :
          :  max. iterations                   250          :
          :  Hamiltonian                  GFN2-xTB          :
          :  restarted?                      false          :
          :  GBSA solvation                  false          :
          :  PC potential                    false          :
          :  electronic temp.          300.0000000     K    :
          :  accuracy                    1.0000000          :
          :  -> integral cutoff          0.2500000E+02      :
          :  -> integral neglect         0.1000000E-07      :
          :  -> SCF convergence          0.1000000E-05 Eh   :
          :  -> wf. convergence          0.1000000E-03 e    :
          :  Broyden damping             0.4000000          :
          :  net charge                          0          :
          :  unpaired electrons                  0          :
          ...................................................

 iter      E             dE          RMSdq      gap      omega  full diag
   1    -65.3775882 -0.653776E+02  0.619E+00    4.24       0.0  T
   2    -65.5460205 -0.168432E+00  0.385E+00    3.07       1.0  T
   3    -65.5656302 -0.196097E-01  0.146E+00    2.97       1.0  T
   4    -65.5680289 -0.239873E-02  0.608E-01    2.72       1.0  T
   5    -65.5688816 -0.852643E-03  0.253E-01    2.84       1.0  T
   6    -65.5690323 -0.150701E-03  0.127E-01    2.82       1.0  T
   7    -65.5690821 -0.498605E-04  0.492E-02    2.83       1.0  T
   8    -65.5690930 -0.108287E-04  0.225E-02    2.84       1.0  T
   9    -65.5690943 -0.136304E-05  0.528E-03    2.84       3.0  T
  10    -65.5690944 -0.973355E-07  0.253E-03    2.84       6.2  T
  11    -65.5690944 -0.748074E-08  0.512E-04    2.84      30.5  T
  12    -65.5690944 -0.533703E-09  0.246E-04    2.84      63.6  T

   *** convergence criteria satisfied after 12 iterations ***

         #    Occupation            Energy/Eh            Energy/eV
      -------------------------------------------------------------
         1        2.0000           -0.7562927             -20.5798
       ...           ...                  ...                  ...
        52        2.0000           -0.4365849             -11.8801
        53        2.0000           -0.4108290             -11.1792
        54        2.0000           -0.4017904             -10.9333
        55        2.0000           -0.3748640             -10.2006
        56        2.0000           -0.3704079             -10.0793
        57        2.0000           -0.3668333              -9.9820
        58        2.0000           -0.3649955              -9.9320 (HOMO)
        59                         -0.2607468              -7.0953 (LUMO)
        60                         -0.2491116              -6.7787
        61                         -0.2082770              -5.6675
        62                         -0.1797796              -4.8921
        63                         -0.1679901              -4.5712
       ...                                ...                  ...
       128                          1.2956782              35.2572
      -------------------------------------------------------------
                  HL-Gap            0.1042487 Eh            2.8368 eV
             Fermi-level           -0.3128711 Eh           -8.5137 eV

 SCC (total)                   0 d,  0 h,  0 min,  0.070 sec
 SCC setup                      ...        0 min,  0.000 sec (  0.392%)
 Dispersion                     ...        0 min,  0.000 sec (  0.430%)
 classical contributions        ...        0 min,  0.000 sec (  0.086%)
 integral evaluation            ...        0 min,  0.021 sec ( 30.617%)
 iterations                     ...        0 min,  0.025 sec ( 36.192%)
 molecular gradient             ...        0 min,  0.022 sec ( 31.974%)
 printout                       ...        0 min,  0.000 sec (  0.285%)

         :::::::::::::::::::::::::::::::::::::::::::::::::::::
         ::                     SUMMARY                     ::
         :::::::::::::::::::::::::::::::::::::::::::::::::::::
         :: total energy             -65.005901564134 Eh    ::
         :: gradient norm              0.042325052935 Eh/a0 ::
         :: HOMO-LUMO gap              2.836751961428 eV    ::
         ::.................................................::
         :: SCC energy               -65.568112351507 Eh    ::
         :: -> isotropic ES            0.103368666525 Eh    ::
         :: -> anisotropic ES         -0.012218813076 Eh    ::
         :: -> anisotropic XC          0.031229995832 Eh    ::
         :: -> dispersion             -0.052758000288 Eh    ::
         :: repulsion energy           0.562210787373 Eh    ::
         :: add. restraining           0.000000000000 Eh    ::
         :: total charge              -0.000000000000 e     ::
         :::::::::::::::::::::::::::::::::::::::::::::::::::::

           -------------------------------------------------
          |                Property Printout                |
           -------------------------------------------------

    * Orbital Energies and Occupations

         #    Occupation            Energy/Eh            Energy/eV
      -------------------------------------------------------------
         1        2.0000           -0.7562927             -20.5798
       ...           ...                  ...                  ...
        46        2.0000           -0.4682887             -12.7428
        47        2.0000           -0.4670051             -12.7079
        48        2.0000           -0.4616982             -12.5634
        49        2.0000           -0.4580977             -12.4655
        50        2.0000           -0.4560267             -12.4091
        51        2.0000           -0.4415911             -12.0163
        52        2.0000           -0.4365849             -11.8801
        53        2.0000           -0.4108290             -11.1792
        54        2.0000           -0.4017904             -10.9333
        55        2.0000           -0.3748640             -10.2006
        56        2.0000           -0.3704079             -10.0793
        57        2.0000           -0.3668333              -9.9820
        58        2.0000           -0.3649955              -9.9320 (HOMO)
        59                         -0.2607468              -7.0953 (LUMO)
        60                         -0.2491116              -6.7787
        61                         -0.2082770              -5.6675
        62                         -0.1797796              -4.8921
        63                         -0.1679901              -4.5712
        64                         -0.1592512              -4.3334
        65                         -0.1490623              -4.0562
        66                         -0.1396261              -3.7994
        67                         -0.1223460              -3.3292
        68                         -0.1130875              -3.0773
        69                         -0.0451336              -1.2281
       ...                                ...                  ...
       128                          1.2956782              35.2572
      -------------------------------------------------------------
                  HL-Gap            0.1042487 Eh            2.8368 eV
             Fermi-level           -0.3128711 Eh           -8.5137 eV

     #   Z          covCN         q      C6AA      α(0)
     1   6 C        3.751    -0.117    22.807     6.811
     2   6 C        3.853     0.081    19.196     6.231
     3   8 O        1.653    -0.236    17.925     5.715
     4  15 P        3.836     0.362   145.155    21.642
     5  16 S        0.926    -0.357   154.640    21.033
     6   8 O        1.655    -0.239    17.974     5.723
     7   6 C        3.850     0.079    19.229     6.237
     8   6 C        3.751    -0.116    22.784     6.807
     9  16 S        2.032    -0.196   149.382    20.571
    10   6 C        3.808     0.053    19.691     6.317
    11  16 S        2.031    -0.164   147.981    20.474
    12  15 P        3.813     0.373   144.734    21.611
    13  16 S        0.926    -0.386   155.989    21.125
    14   8 O        1.655    -0.241    18.007     5.728
    15   6 C        3.869     0.084    19.146     6.222
    16   6 C        3.752    -0.116    22.785     6.807
    17   8 O        1.653    -0.232    17.867     5.706
    18   6 C        3.814     0.077    19.286     6.251
    19   6 C        3.752    -0.119    22.845     6.816
    20   1 H        0.925     0.057     2.233     2.337
    21   1 H        0.925     0.064     2.150     2.293
    22   1 H        0.925     0.066     2.127     2.281
    23   1 H        0.924     0.055     2.253     2.347
    24   1 H        0.924     0.065     2.142     2.289
    25   1 H        0.924     0.065     2.138     2.287
    26   1 H        0.924     0.072     2.062     2.246
    27   1 H        0.925     0.058     2.228     2.334
    28   1 H        0.925     0.059     2.213     2.326
    29   1 H        0.925     0.059     2.209     2.324
    30   1 H        0.925     0.072     2.065     2.247
    31   1 H        0.924     0.091     1.865     2.135
    32   1 H        0.924     0.052     2.295     2.369
    33   1 H        0.924     0.059     2.208     2.324
    34   1 H        0.925     0.063     2.168     2.303
    35   1 H        0.925     0.059     2.208     2.324
    36   1 H        0.925     0.065     2.145     2.290
    37   1 H        0.924     0.074     2.047     2.238
    38   1 H        0.924     0.061     2.184     2.311
    39   1 H        0.925     0.067     2.123     2.278
    40   1 H        0.925     0.067     2.118     2.276
    41   1 H        0.925     0.061     2.192     2.315

 Mol. C6AA /au·bohr⁶  :      26541.843994
 Mol. C8AA /au·bohr⁸  :     863439.750588
 Mol. α(0) /au        :        258.302832


Wiberg/Mayer (AO) data.
largest (>0.10) Wiberg bond orders for each atom

 ---------------------------------------------------------------------------
     #   Z sym  total        # sym  WBO       # sym  WBO       # sym  WBO
 ---------------------------------------------------------------------------
     1   6 C    3.989 --     2 C    1.021    21 H    0.984    22 H    0.981
                            20 H    0.980
     2   6 C    3.913 --     1 C    1.021    24 H    0.972    23 H    0.966
                             3 O    0.890
     3   8 O    2.414 --     4 P    1.338     2 C    0.890
     4  15 P    5.305 --     5 S    1.587     3 O    1.338     6 O    1.320
                             9 S    0.940
     5  16 S    1.936 --     4 P    1.587     9 S    0.149
     6   8 O    2.418 --     4 P    1.320     7 C    0.900
     7   6 C    3.905 --     8 C    1.020    25 H    0.971    26 H    0.963
                             6 O    0.900
     8   6 C    3.992 --     7 C    1.020    28 H    0.985    29 H    0.980
                            27 H    0.980
     9  16 S    2.252 --    10 C    0.973     4 P    0.940     5 S    0.149
    10   6 C    3.953 --    11 S    0.999     9 S    0.973    30 H    0.969
                            31 H    0.943
    11  16 S    2.267 --    10 C    0.999    12 P    0.935    13 S    0.143
    12  15 P    5.281 --    13 S    1.570    17 O    1.356    14 O    1.299
                            11 S    0.935
    13  16 S    1.906 --    12 P    1.570    11 S    0.143
    14   8 O    2.412 --    12 P    1.299    15 C    0.906
    15   6 C    3.912 --    16 C    1.019    32 H    0.971    33 H    0.965
                            14 O    0.906
    16   6 C    3.989 --    15 C    1.019    34 H    0.984    36 H    0.984
                            35 H    0.980
    17   8 O    2.423 --    12 P    1.356    18 C    0.886
    18   6 C    3.909 --    19 C    1.024    38 H    0.971    37 H    0.969
                            17 O    0.886
    19   6 C    3.988 --    18 C    1.024    40 H    0.982    41 H    0.979
                            39 H    0.973
    20   1 H    0.995 --     1 C    0.980
    21   1 H    0.996 --     1 C    0.984
    22   1 H    0.996 --     1 C    0.981
    23   1 H    0.997 --     2 C    0.966
    24   1 H    0.995 --     2 C    0.972
    25   1 H    0.995 --     7 C    0.971
    26   1 H    0.995 --     7 C    0.963
    27   1 H    0.997 --     8 C    0.980
    28   1 H    0.996 --     8 C    0.985
    29   1 H    0.995 --     8 C    0.980
    30   1 H    0.995 --    10 C    0.969
    31   1 H    0.992 --    10 C    0.943
    32   1 H    0.997 --    15 C    0.971
    33   1 H    0.996 --    15 C    0.965
    34   1 H    0.996 --    16 C    0.984
    35   1 H    0.995 --    16 C    0.980
    36   1 H    0.996 --    16 C    0.984
    37   1 H    0.994 --    18 C    0.969
    38   1 H    0.996 --    18 C    0.971
    39   1 H    0.996 --    19 C    0.973
    40   1 H    0.995 --    19 C    0.982
    41   1 H    0.995 --    19 C    0.979
 ---------------------------------------------------------------------------

Topologies differ in total number of bonds
Writing topology from bond orders to xtbtopo.mol

molecular dipole:
                 x           y           z       tot (Debye)
 q only:       -0.289      -1.805       2.830
   full:       -0.182      -1.782       2.650       8.131
molecular quadrupole (traceless):
                xx          xy          yy          xz          yz          zz
 q only:       21.824       5.663     -13.799      10.637      11.718      -8.024
  q+dip:       25.391       2.234     -14.177       9.843      14.076     -11.215
   full:       26.360       2.894     -15.053      10.393      14.351     -11.308


           -------------------------------------------------
          | TOTAL ENERGY              -65.005901564134 Eh   |
          | GRADIENT NORM               0.042325052935 Eh/α |
          | HOMO-LUMO GAP               2.836751961428 eV   |
           -------------------------------------------------

------------------------------------------------------------------------
 * finished run on 2025/04/09 at 05:21:16.242     
------------------------------------------------------------------------
 total:
 * wall-time:     0 d,  0 h,  0 min,  0.116 sec
 *  cpu-time:     0 d,  0 h,  0 min,  0.069 sec
 * ratio c/w:     0.598 speedup
 SCF:
 * wall-time:     0 d,  0 h,  0 min,  0.070 sec
 *  cpu-time:     0 d,  0 h,  0 min,  0.056 sec
 * ratio c/w:     0.806 speedup

