
                                 *****************
                                 * O   R   C   A *
                                 *****************

                                            #,                                       
                                            ###                                      
                                            ####                                     
                                            #####                                    
                                            ######                                   
                                           ########,                                 
                                     ,,################,,,,,                         
                               ,,#################################,,                 
                          ,,##########################################,,             
                       ,#########################################, ''#####,          
                    ,#############################################,,   '####,        
                  ,##################################################,,,,####,       
                ,###########''''           ''''###############################       
              ,#####''   ,,,,##########,,,,          '''####'''          '####       
            ,##' ,,,,###########################,,,                        '##       
           ' ,,###''''                  '''############,,,                           
         ,,##''                                '''############,,,,        ,,,,,,###''
      ,#''                                            '''#######################'''  
     '                                                          ''''####''''         
             ,#######,   #######,   ,#######,      ##                                
            ,#'     '#,  ##    ##  ,#'     '#,    #''#        ,####,   ,####,        
            ##       ##  ##   ,#'  ##            #'  '#       #'       #'  '#        
            ##       ##  #######   ##           ,######,      #####,   #    #        
            '#,     ,#'  ##    ##  '#,     ,#' ,#      #,     #,   #   #,  ,#        
             '#######'   ##     ##  '#######'  #'      '#     '####' # '####'        



                #########################################################
                #                        -***-                          #
                #          Department of theory and spectroscopy        #
                #                                                       #
                #                      Frank Neese                      #
                #                                                       #
                #     Directorship, Architecture, Infrastructure        #
                #                    SHARK, DRIVERS                     #
                #        Core code/Algorithms in most modules           #
                #                                                       #
                #        Max Planck Institute fuer Kohlenforschung      #
                #                Kaiser Wilhelm Platz 1                 #
                #                 D-45470 Muelheim/Ruhr                 #
                #                      Germany                          #
                #                                                       #
                #                  All rights reserved                  #
                #                        -***-                          #
                #########################################################


                         Program Version 6.0.1  -  RELEASE   -


 With contributions from (in alphabetic order):
[Max-Planck-Institut fuer Kohlenforschung]                               
  Daniel Aravena         : Magnetic Suceptibility                        
  Michael Atanasov       : Ab Initio Ligand Field Theory (pilot matlab implementation)
  Alexander A. Auer      : GIAO ZORA, VPT2 properties, NMR spectrum      
  Ute Becker             : All parallelization in ORCA, NUMFREQ, NUMCALC 
  Giovanni Bistoni       : ED, misc. LED, open-shell LED, HFLD           
  Martin Brehm           : Molecular dynamics                            
  Dmytro Bykov           : pre 5.0 version of the SCF Hessian            
  Marcos Casanova-Páez   : Triplet and SCS-CIS(D). UHF-(DLPNO)-IP/EA/STEOM-CCSD. UHF-CVS-IP/STEOM-CCSD   
  Vijay G. Chilkuri      : MRCI spin determinant printing, contributions to CSF-ICE 
  Pauline Colinet        : FMM embedding                                 
  Dipayan Datta          : RHF DLPNO-CCSD density                        
  Achintya Kumar Dutta   : EOM-CC, STEOM-CC                              
  Nicolas Foglia         : Exact transition moments, OPA infrastructure, MCD improvements    
  Dmitry Ganyushin       : Spin-Orbit,Spin-Spin,Magnetic field MRCI      
  Miquel Garcia-Rates    : C-PCM and meta-GGA Hessian, CCSD/C-PCM, Gaussian charge scheme 
  Tiago L. C. Gouveia    : GS-ROHF, GS-ROCIS                             
  Yang Guo               : DLPNO-NEVPT2, F12-NEVPT2, CIM, IAO-localization        
  Andreas Hansen         : Spin unrestricted coupled pair/coupled cluster methods 
  Ingolf Harden          : AUTO-CI MPn and infrastructure                
  Benjamin Helmich-Paris : MC-RPA, TRAH-(SCF,CASSCF), AVAS, COSX integrals, SCF dyn. polar. 
  Lee Huntington         : MR-EOM, pCC                                   
  Robert Izsak           : Overlap fitted RIJCOSX, COSX-SCS-MP3, EOM     
  Riya Kayal             : Wick's Theorem for AUTO-CI, AUTO-CI UHF-CCSDT 
  Emily Kempfer          : AUTO-CI, RHF CISDT and CCSDT                  
  Christian Kollmar      : KDIIS, OOCD, Brueckner-CCSD(T), CCSD density, CASPT2, CASPT2-K, improved NEVPT2 
  Axel Koslowski         : Symmetry handling                             
  Simone Kossmann        : meta-GGA functionals, TD-DFT gradient, OOMP2, (MP2 Hessian; deprecated post 5.0) 
  Lucas Lang             : DCDCAS                                        
  Marvin Lechner         : AUTO-CI (C++ implementation), FIC-MRCC        
  Spencer Leger          : CASSCF response                               
  Dagmar Lenk            : GEPOL surface, SMD, ORCA-2-JSON               
  Dimitrios Liakos       : Extrapolation schemes; Compound Job, initial MDCI parallelization 
  Dimitrios Manganas     : Further ROCIS development; embedding schemes. LFT, Crystal Embedding 
  Dimitrios Pantazis     : SARC Basis sets                               
  Anastasios Papadopoulos: AUTO-CI, single reference methods and gradients 
  Taras Petrenko         : pre 6.0 DFT Hessian and TD-DFT gradient, (ASA, deprecated), ECA, 1-Electron XAS/XES, NRVS 
  Peter Pinski           : DLPNO-MP2, DLPNO-MP2 Gradient                 
  Christoph Reimann      : Effective Core Potentials                     
  Marius Retegan         : Local ZFS, SOC                                
  Christoph Riplinger    : Optimizer, TS searches, QM/MM, DLPNO-CCSD(T), (RO)-DLPNO pert. Triples 
  Michael Roemelt        : Original ROCIS implementation                 
  Masaaki Saitow         : Open-shell DLPNO-CCSD energy and density      
  Barbara Sandhoefer     : DKH picture change effects                    
  Kantharuban Sivalingam : CASSCF convergence/infrastructure, NEVPT2 and variants, FIC-MRCI 
  Bernardo de Souza      : ESD, SOC TD-DFT                               
  Georgi L. Stoychev     : AutoAux, RI-MP2 NMR, DLPNO-MP2 response, X2C  
  Van Anh Tran           : RI-MP2 g-tensors                              
  Willem Van den Heuvel  : Paramagnetic NMR                              
  Zikuan Wang            : NOTCH, Electric field optimization            
  Frank Wennmohs         : Technical directorship and infrastructure     
  Hang Xu                : AUTO-CI-Response properties                   
                                                                         
[FACCTs GmbH]                                                            
  Markus Bursch, Miquel Garcia-Rates, Christoph Riplinger, Bernardo de Souza, Georgi L. Stoychev 
                                                                 
  APM, Basis sets (HGBS, AHGBS, def-TZVP (Ac-Lr), def2-XVPD (La-Lu)), CI-OPT, improved COSX, DLPNO-Multilevel,           
  DOCKER, DRACO, updates on ESD, GOAT, IRC, LR-CPCM, MBIS, meta-GGA TD-DFT gradient, ML-optimized integration grids, 
  MM, NACMEs, nearIR, NEB, NEB-TS, NL-DFT gradient (VV10), 2- and 3-layer-ONIOM, interface openCOSMO-RS, QMMM,   
  Crystal-QMMM, SF, symmetry and pop. for TD-DFT, r2SCAN hybrids, SOLVATOR                                   
                                                                         
[Other institutions]                                                     
  V. Asgeirsson          : NEB                                           
  Christoph Bannwarth    : sTDA-DFT, sTD-DFT, PBEh-3c, B97-3c, D3        
  Sebastian Ehlert       : rSCAN, r2SCAN, r2SCAN-3c, D4, dhf basis sets  
  Marvin Friede          : D4 for Fr, Ra, Ac-Lr                          
  Lars Goerigk           : TD-DFT with DH, B97 family of functionals     
  Stefan Grimme          : VdW corrections, initial TS optimization, DFT functionals, gCP, sTDA/sTD-DF 
  Waldemar Hujo          : DFT-NL                                        
  H. Jonsson             : NEB                                           
  Holger Kruse           : gCP                                           
  Marcel Mueller         : wB97X-3c, vDZP basis set                      
  Hagen Neugebauer       : wr2SCAN                                       
  Tobias Risthaus        : range-separated hybrid DFT                    
  Lukas Wittmann         : regularized MP2, r2SCAN double-hybrids, wr2SCAN        
                                                                         
We gratefully acknowledge several colleagues who have allowed us to      
interface, adapt or use parts of their codes:                            
  Ed Valeev, F. Pavosevic, A. Kumar             : LibInt (2-el integral package), F12 methods 
  Garnet Chan, S. Sharma, J. Yang, R. Olivares  : DMRG                   
  Ulf Ekstrom                                   : XCFun DFT Library      
  Mihaly Kallay                                 : mrcc  (arbitrary order and MRCC methods)
  Frank Weinhold                                : gennbo (NPA and NBO analysis)           
  Simon Mueller                                 : openCOSMO-RS                            
  Christopher J. Cramer and Donald G. Truhlar   : smd solvation model                     
  S Lehtola, MJT Oliveira, MAL Marques          : LibXC Library                           
  Liviu Ungur et al                             : ANISO software                          


 Your calculation uses the libint2 library for the computation of 2-el integrals
 For citations please refer to: http://libint.valeyev.net

 Your ORCA version has been built with support for libXC version: 6.2.2
 For citations please refer to: https://libxc.gitlab.io

 This ORCA versions uses:
   CBLAS   interface :  Fast vector & matrix operations
   LAPACKE interface :  Fast linear algebra routines
   SCALAPACK package :  Parallel linear algebra routines
   Shared memory     :  Shared parallel matrices
   BLAS/LAPACK       :  OpenBLAS 0.3.27  USE64BITINT DYNAMIC_ARCH NO_AFFINITY Zen SINGLE_THREADED
        Core in use  :  Zen
   Copyright (c) 2011-2014, The OpenBLAS Project


Your calculation utilizes the geometrical counterpoise correction gCP
Please cite in your paper:
H.Kruse, S. Grimme J.Chem.Phys., 136, (2012), 154101 
   

Your calculation utilizes the DFT-NL dispersion correction.
Cite in your paper:
Vydrov, O. A.; Van Voorhis, T. J. Chem. Phys. 2010, 133, 244103
Hujo, W.; Grimme, S. J. Chem. Theory Comput. 2011, 7, 3866 
   

================================================================================

----- Orbital basis set information -----
Your calculation utilizes the basis: def2-TZVP
   F. Weigend and R. Ahlrichs, Phys. Chem. Chem. Phys. 7, 3297 (2005).

----- AuxJ basis set information -----
Your calculation utilizes the auxiliary basis: def2/J
   F. Weigend, Phys. Chem. Chem. Phys. 8, 1057 (2006).

================================================================================
                                        WARNINGS
                       Please study these warnings very carefully!
================================================================================

WARNING: Old DensityContainer found on disk!
         Will remove this file - 
         If you want to keep old densities, please start your calculation with a different basename. 


================================================================================
                                       INPUT FILE
================================================================================
NAME = sp_gas.inp
|  1> ! wb97x-v def2-tzvp def2/J RIJCOSX DEFGRID2 scfconv7 GCP(DFT/TZ) printgap
|  2> %output
|  3>     printlevel normal
|  4> end
|  5> * xyz 0 1
|  6> C 5.461448640770252 -3.3997834069197745 -2.137727213625836
|  7> C 4.869387982660872 -2.1492866152955927 -1.5426220285824825
|  8> O 3.4144077491844214 -2.3383672697060844 -1.501068618813871
|  9> C 2.7007976244687675 -1.331613148359628 -0.9896343610517782
| 10> O 3.1821706873636906 -0.2922227778126908 -0.5699759568633623
| 11> C 1.225832866057741 -1.644460825485317 -0.9949747530548758
| 12> C 0.43828361578227715 -0.48732502717549553 -0.3985553495467181
| 13> H 0.5250741509784103 0.41226574600036453 -1.0134789796495198
| 14> C 0.8566543753034421 -0.19855027180871943 1.0311833275002191
| 15> O 1.2051853256655178 -1.0537461767842604 1.8258054591567097
| 16> O 0.7459796531532734 1.0996343131202657 1.3111790773104517
| 17> C 1.0010733360332997 1.4956545311117435 2.7001681367960804
| 18> C 0.6973052426222525 2.967534706952458 2.800970438927147
| 19> S -1.35268431483238 -0.9826275932985238 -0.3573377721472368
| 20> P -2.3323642571963954 0.9066482491309533 -0.27325095740988814
| 21> S -1.6958387880755086 2.2734323362561484 -1.492800885692848
| 22> O -3.852047258754225 0.3941025573737034 -0.4247996916756203
| 23> C -4.406956493813902 0.09961859940166821 -1.7396873270176398
| 24> O -2.3214563808732716 1.4236429651706202 1.244340199388007
| 25> C -2.624143165424351 0.5426365516443531 2.366787765789552
| 26> H 5.2302026425935 -4.275416774659563 -1.5246673631088656
| 27> H 5.09137050372796 -3.566498136007183 -3.1532882827963054
| 28> H 6.548878540801053 -3.2892966970965 -2.1823359120721446
| 29> H 5.0794048301542025 -1.2640859666406559 -2.1497413334167974
| 30> H 5.217787615586988 -1.9738117974578635 -0.52076571843586
| 31> H 1.0697354395935945 -2.573162141597896 -0.435676622233481
| 32> H 0.9123401891855334 -1.8286869241305352 -2.0274446682504528
| 33> H 0.35625801905736737 0.8951686148927673 3.348353206225251
| 34> H 2.047309682497454 1.2716751241932116 2.9280641891364865
| 35> H 1.3361608838182664 3.548389135959338 2.129844401480785
| 36> H -0.3505851153981756 3.169035696691692 2.5604309457649177
| 37> H 0.8851074615517753 3.298264652830717 3.8266610896637716
| 38> H -5.408060523320017 -0.287940355383314 -1.5520469525990066
| 39> H -3.804437670678571 -0.6544324672017499 -2.2530768021955763
| 40> H -4.458969755051493 1.0156038044781002 -2.332579292917734
| 41> H -2.621310917664225 1.1858552659660362 3.246671606303523
| 42> H -1.8519298891927551 -0.225449220078255 2.459424541545456
| 43> H -3.6073619629040787 0.08368571549017788 2.2384996900588185
| 44> *
| 45> 
| 46>                          ****END OF INPUT****
================================================================================

                       ****************************
                       * Single Point Calculation *
                       ****************************

---------------------------------
CARTESIAN COORDINATES (ANGSTROEM)
---------------------------------
  C      5.461449   -3.399783   -2.137727
  C      4.869388   -2.149287   -1.542622
  O      3.414408   -2.338367   -1.501069
  C      2.700798   -1.331613   -0.989634
  O      3.182171   -0.292223   -0.569976
  C      1.225833   -1.644461   -0.994975
  C      0.438284   -0.487325   -0.398555
  H      0.525074    0.412266   -1.013479
  C      0.856654   -0.198550    1.031183
  O      1.205185   -1.053746    1.825805
  O      0.745980    1.099634    1.311179
  C      1.001073    1.495655    2.700168
  C      0.697305    2.967535    2.800970
  S     -1.352684   -0.982628   -0.357338
  P     -2.332364    0.906648   -0.273251
  S     -1.695839    2.273432   -1.492801
  O     -3.852047    0.394103   -0.424800
  C     -4.406956    0.099619   -1.739687
  O     -2.321456    1.423643    1.244340
  C     -2.624143    0.542637    2.366788
  H      5.230203   -4.275417   -1.524667
  H      5.091371   -3.566498   -3.153288
  H      6.548879   -3.289297   -2.182336
  H      5.079405   -1.264086   -2.149741
  H      5.217788   -1.973812   -0.520766
  H      1.069735   -2.573162   -0.435677
  H      0.912340   -1.828687   -2.027445
  H      0.356258    0.895169    3.348353
  H      2.047310    1.271675    2.928064
  H      1.336161    3.548389    2.129844
  H     -0.350585    3.169036    2.560431
  H      0.885107    3.298265    3.826661
  H     -5.408061   -0.287940   -1.552047
  H     -3.804438   -0.654432   -2.253077
  H     -4.458970    1.015604   -2.332579
  H     -2.621311    1.185855    3.246672
  H     -1.851930   -0.225449    2.459425
  H     -3.607362    0.083686    2.238500

----------------------------
CARTESIAN COORDINATES (A.U.)
----------------------------
  NO LB      ZA    FRAG     MASS         X           Y           Z
   0 C     6.0000    0    12.011   10.320642   -6.424660   -4.039719
   1 C     6.0000    0    12.011    9.201810   -4.061563   -2.915133
   2 O     8.0000    0    15.999    6.452296   -4.418874   -2.836609
   3 C     6.0000    0    12.011    5.103768   -2.516384   -1.870138
   4 O     8.0000    0    15.999    6.013431   -0.552221   -1.077098
   5 C     6.0000    0    12.011    2.316488   -3.107581   -1.880230
   6 C     6.0000    0    12.011    0.828236   -0.920911   -0.753160
   7 H     1.0000    0     1.008    0.992246    0.779069   -1.915198
   8 C     6.0000    0    12.011    1.618842   -0.375206    1.948654
   9 O     8.0000    0    15.999    2.277470   -1.991292    3.450272
  10 O     8.0000    0    15.999    1.409697    2.078008    2.477769
  11 C     6.0000    0    12.011    1.891754    2.826377    5.102578
  12 C     6.0000    0    12.011    1.317716    5.607828    5.293067
  13 S    16.0000    0    32.060   -2.556203   -1.856897   -0.675271
  14 P    15.0000    0    30.974   -4.407530    1.713317   -0.516369
  15 S    16.0000    0    32.060   -3.204671    4.296164   -2.820985
  16 O     8.0000    0    15.999   -7.279314    0.744746   -0.802755
  17 C     6.0000    0    12.011   -8.327941    0.188252   -3.287533
  18 O     8.0000    0    15.999   -4.386917    2.690295    2.351462
  19 C     6.0000    0    12.011   -4.958912    1.025434    4.472581
  20 H     1.0000    0     1.008    9.883651   -8.079367   -2.881204
  21 H     1.0000    0     1.008    9.621296   -6.739705   -5.958851
  22 H     1.0000    0     1.008   12.375587   -6.215870   -4.124017
  23 H     1.0000    0     1.008    9.598684   -2.388776   -4.062422
  24 H     1.0000    0     1.008    9.860190   -3.729964   -0.984105
  25 H     1.0000    0     1.008    2.021507   -4.862572   -0.823309
  26 H     1.0000    0     1.008    1.724073   -3.455717   -3.831315
  27 H     1.0000    0     1.008    0.673230    1.691624    6.327471
  28 H     1.0000    0     1.008    3.868855    2.403118    5.533239
  29 H     1.0000    0     1.008    2.524978    6.705484    4.024823
  30 H     1.0000    0     1.008   -0.662510    5.988610    4.838513
  31 H     1.0000    0     1.008    1.672611    6.232817    7.231341
  32 H     1.0000    0     1.008  -10.219753   -0.544128   -2.932944
  33 H     1.0000    0     1.008   -7.189345   -1.236698   -4.257698
  34 H     1.0000    0     1.008   -8.426232    1.919213   -4.407936
  35 H     1.0000    0     1.008   -4.953560    2.240942    6.135320
  36 H     1.0000    0     1.008   -3.499640   -0.426037    4.647639
  37 H     1.0000    0     1.008   -6.816926    0.158143    4.230151

--------------------------------
INTERNAL COORDINATES (ANGSTROEM)
--------------------------------
 C      0   0   0     0.000000000000     0.00000000     0.00000000
 C      1   0   0     1.506130216817     0.00000000     0.00000000
 O      2   1   0     1.467803004338   107.09145272     0.00000000
 C      3   2   1     1.335798738941   116.31492187   179.46879432
 O      4   3   2     1.219903907803   124.26739754     0.14830867
 C      4   3   2     1.507787527281   111.39875521   180.24713206
 C      6   4   3     1.521483875110   110.31381681   179.57764562
 H      7   6   4     1.093127269371   111.36264706    64.72565407
 C      7   6   4     1.517424672398   111.79992495   300.46359445
 O      9   7   6     1.218301354906   124.04446615   325.51711251
 O      9   7   6     1.332640135439   111.12800085   147.73711532
 C     11   9   7     1.466695403782   116.58709269   174.50555465
 C     12  11   9     1.506276007484   106.98634986   185.02310050
 S      7   6   4     1.858652643499   107.74568739   182.93790230
 P     14   7   6     2.129837221637   101.98865223   201.82148852
 S     15  14   7     1.939217739511   116.70477317    45.60001314
 O     15  14   7     1.610933434447    98.50981998   173.37774986
 C     17  15  14     1.457248967827   120.55752207   277.75767643
 O     15  14   7     1.603273350795   108.67994899   278.56597097
 C     19  15  14     1.458656960885   122.15487199   316.35804224
 H      1   2   3     1.093641114209   111.10952593   299.15838577
 H      1   2   3     1.093670843365   111.12768875    60.81910261
 H      1   2   3     1.093938314763   108.84551061   179.99373199
 H      2   1   3     1.093746366811   112.15761876   241.59194037
 H      2   1   3     1.093784272379   112.15571953   118.38140776
 H      6   4   3     1.095293084173   108.27239460    56.97920127
 H      6   4   3     1.094628265512   108.56730846   300.74110586
 H     12  11   9     1.093852829596   108.08481025   306.04843695
 H     12  11   9     1.093944184160   107.95947388    63.98536132
 H     13  12  11     1.093589756775   111.10854099   299.64994167
 H     13  12  11     1.093862925173   111.00691654    61.21920347
 H     13  12  11     1.093934770242   108.87787043   180.41911975
 H     18  17  15     1.089779854576   105.44495829   176.15392652
 H     18  17  15     1.093247774524   110.68574858    57.24504587
 H     18  17  15     1.092362191991   109.78042190   295.03245831
 H     20  19  15     1.089923808749   105.32146334   184.64863810
 H     20  19  15     1.093092250880   110.06107472    65.94762544
 H     20  19  15     1.092617455516   110.49251184   303.61463743

---------------------------
INTERNAL COORDINATES (A.U.)
---------------------------
 C      0   0   0     0.000000000000     0.00000000     0.00000000
 C      1   0   0     2.846173631807     0.00000000     0.00000000
 O      2   1   0     2.773745696745   107.09145272     0.00000000
 C      3   2   1     2.524293786637   116.31492187   179.46879432
 O      4   3   2     2.305284295448   124.26739754     0.14830867
 C      4   3   2     2.849305494703   111.39875521   180.24713206
 C      6   4   3     2.875187841136   110.31381681   179.57764562
 H      7   6   4     2.065711168632   111.36264706    64.72565407
 C      7   6   4     2.867517059688   111.79992495   300.46359445
 O      9   7   6     2.302255909357   124.04446615   325.51711251
 O      9   7   6     2.518324891051   111.12800085   147.73711532
 C     11   9   7     2.771652635028   116.58709269   174.50555465
 C     12  11   9     2.846449136241   106.98634986   185.02310050
 S      7   6   4     3.512344474301   107.74568739   182.93790230
 P     14   7   6     4.024809058726   101.98865223   201.82148852
 S     15  14   7     3.664590441717   116.70477317    45.60001314
 O     15  14   7     3.044223011083    98.50981998   173.37774986
 C     17  15  14     2.753801458132   120.55752207   277.75767643
 O     15  14   7     3.029747550817   108.67994899   278.56597097
 C     19  15  14     2.756462179410   122.15487199   316.35804224
 H      1   2   3     2.066682194651   111.10952593   299.15838577
 H      1   2   3     2.066738374614   111.12768875    60.81910261
 H      1   2   3     2.067243822305   108.84551061   179.99373199
 H      2   1   3     2.066881093245   112.15761876   241.59194037
 H      2   1   3     2.066952724388   112.15571953   118.38140776
 H      6   4   3     2.069803965466   108.27239460    56.97920127
 H      6   4   3     2.068547640268   108.56730846   300.74110586
 H     12  11   9     2.067082278751   108.08481025   306.04843695
 H     12  11   9     2.067254913859   107.95947388    63.98536132
 H     13  12  11     2.066585143166   111.10854099   299.64994167
 H     13  12  11     2.067101356628   111.00691654    61.21920347
 H     13  12  11     2.067237124131   108.87787043   180.41911975
 H     18  17  15     2.059385471413   105.44495829   176.15392652
 H     18  17  15     2.065938890369   110.68574858    57.24504587
 H     18  17  15     2.064265381914   109.78042190   295.03245831
 H     20  19  15     2.059657505377   105.32146334   184.64863810
 H     20  19  15     2.065644993274   110.06107472    65.94762544
 H     20  19  15     2.064747760068   110.49251184   303.61463743

---------------------
BASIS SET INFORMATION
---------------------
There are 5 groups of distinct atoms

 Group   1 Type C   : 11s6p2d1f contracted to 5s3p2d1f pattern {62111/411/11/1}
 Group   2 Type O   : 11s6p2d1f contracted to 5s3p2d1f pattern {62111/411/11/1}
 Group   3 Type H   : 5s1p contracted to 3s1p pattern {311/1}
 Group   4 Type S   : 14s9p3d1f contracted to 5s5p2d1f pattern {73211/51111/21/1}
 Group   5 Type P   : 14s9p3d1f contracted to 5s5p2d1f pattern {73211/51111/21/1}

Atom   0C    basis set group =>   1
Atom   1C    basis set group =>   1
Atom   2O    basis set group =>   2
Atom   3C    basis set group =>   1
Atom   4O    basis set group =>   2
Atom   5C    basis set group =>   1
Atom   6C    basis set group =>   1
Atom   7H    basis set group =>   3
Atom   8C    basis set group =>   1
Atom   9O    basis set group =>   2
Atom  10O    basis set group =>   2
Atom  11C    basis set group =>   1
Atom  12C    basis set group =>   1
Atom  13S    basis set group =>   4
Atom  14P    basis set group =>   5
Atom  15S    basis set group =>   4
Atom  16O    basis set group =>   2
Atom  17C    basis set group =>   1
Atom  18O    basis set group =>   2
Atom  19C    basis set group =>   1
Atom  20H    basis set group =>   3
Atom  21H    basis set group =>   3
Atom  22H    basis set group =>   3
Atom  23H    basis set group =>   3
Atom  24H    basis set group =>   3
Atom  25H    basis set group =>   3
Atom  26H    basis set group =>   3
Atom  27H    basis set group =>   3
Atom  28H    basis set group =>   3
Atom  29H    basis set group =>   3
Atom  30H    basis set group =>   3
Atom  31H    basis set group =>   3
Atom  32H    basis set group =>   3
Atom  33H    basis set group =>   3
Atom  34H    basis set group =>   3
Atom  35H    basis set group =>   3
Atom  36H    basis set group =>   3
Atom  37H    basis set group =>   3
---------------------------------
AUXILIARY/J BASIS SET INFORMATION
---------------------------------
There are 5 groups of distinct atoms

 Group   1 Type C   : 12s5p4d2f1g contracted to 6s4p3d1f1g pattern {711111/2111/211/2/1}
 Group   2 Type O   : 12s5p4d2f1g contracted to 6s4p3d1f1g pattern {711111/2111/211/2/1}
 Group   3 Type H   : 5s2p1d contracted to 3s1p1d pattern {311/2/1}
 Group   4 Type S   : 14s5p5d2f1g contracted to 8s4p3d1f1g pattern {71111111/2111/311/2/1}
 Group   5 Type P   : 14s5p5d2f1g contracted to 8s4p3d1f1g pattern {71111111/2111/311/2/1}

Atom   0C    basis set group =>   1
Atom   1C    basis set group =>   1
Atom   2O    basis set group =>   2
Atom   3C    basis set group =>   1
Atom   4O    basis set group =>   2
Atom   5C    basis set group =>   1
Atom   6C    basis set group =>   1
Atom   7H    basis set group =>   3
Atom   8C    basis set group =>   1
Atom   9O    basis set group =>   2
Atom  10O    basis set group =>   2
Atom  11C    basis set group =>   1
Atom  12C    basis set group =>   1
Atom  13S    basis set group =>   4
Atom  14P    basis set group =>   5
Atom  15S    basis set group =>   4
Atom  16O    basis set group =>   2
Atom  17C    basis set group =>   1
Atom  18O    basis set group =>   2
Atom  19C    basis set group =>   1
Atom  20H    basis set group =>   3
Atom  21H    basis set group =>   3
Atom  22H    basis set group =>   3
Atom  23H    basis set group =>   3
Atom  24H    basis set group =>   3
Atom  25H    basis set group =>   3
Atom  26H    basis set group =>   3
Atom  27H    basis set group =>   3
Atom  28H    basis set group =>   3
Atom  29H    basis set group =>   3
Atom  30H    basis set group =>   3
Atom  31H    basis set group =>   3
Atom  32H    basis set group =>   3
Atom  33H    basis set group =>   3
Atom  34H    basis set group =>   3
Atom  35H    basis set group =>   3
Atom  36H    basis set group =>   3
Atom  37H    basis set group =>   3

Checking for AutoStart:
The File: sp_gas.gbw exists
Trying to determine its content:
     ... Fine, the file contains calculation information
     ... Fine, the calculation information was read
     ... Fine, the file contains a basis set
     ... Fine, the basis set was read
     ... Fine, the file contains a geometry
     ... Fine, the geometry was read
     ... Fine, the file contains a set of orbitals
     ... Fine, the orbitals can be read
     => possible old guess file was deleted
     => GBW file was renamed to GES file
     => GES file is set as startup file
     => Guess is set to MORead
     ... now leaving AutoStart

------------------------------------------------------------------------------
                             ORCA STARTUP CALCULATIONS
                           -- RI-GTO INTEGRALS CHOSEN --
------------------------------------------------------------------------------
------------------------------------------------------------------------------
                   ___                                                        
                  /   \      - P O W E R E D   B Y -                         
                 /     \                                                     
                 |  |  |   _    _      __       _____    __    __             
                 |  |  |  | |  | |    /  \     |  _  \  |  |  /  |          
                  \  \/   | |  | |   /    \    | | | |  |  | /  /          
                 / \  \   | |__| |  /  /\  \   | |_| |  |  |/  /          
                |  |  |   |  __  | /  /__\  \  |    /   |      \           
                |  |  |   | |  | | |   __   |  |    \   |  |\   \          
                \     /   | |  | | |  |  |  |  | |\  \  |  | \   \       
                 \___/    |_|  |_| |__|  |__|  |_| \__\ |__|  \__/        
                                                                              
                      - O R C A' S   B I G   F R I E N D -                    
                                      &                                       
                       - I N T E G R A L  F E E D E R -                       
                                                                              
 v1 FN, 2020, v2 2021, v3 2022-2024                                           
------------------------------------------------------------------------------


----------------------
SHARK INTEGRAL PACKAGE
----------------------

Number of atoms                             ...     38
Number of basis functions                   ...    721
Number of shells                            ...    291
Maximum angular momentum                    ...      3
Integral batch strategy                     ... SHARK/LIBINT Hybrid
RI-J (if used) integral strategy            ... SPLIT-RIJ (Revised 2003 algorithm where possible)
Printlevel                                  ...      1
Contraction scheme used                     ... SEGMENTED contraction
Prescreening option                         ... SCHWARTZ
   Thresh                                   ... 3.000e-11
   Tcut                                     ... 1.000e-12
   Tpresel                                  ... 1.000e-12 
Coulomb Range Separation                    ... NOT USED
Exchange Range Separation                   ... Long Range
   Mu parameter                             ... 3.000e-01
   Scaling (regular/separated)              ... 1.670e-01 8.330e-01
Multipole approximations                    ... NOT USED
Finite Nucleus Model                        ... NOT USED
CABS basis                                  ... NOT available
Auxiliary Coulomb fitting basis             ... AVAILABLE
   # of basis functions in Aux-J            ...   1146
   # of shells in Aux-J                     ...    386
   Maximum angular momentum in Aux-J        ...      4
Auxiliary J/K fitting basis                 ... NOT available
Auxiliary Correlation fitting basis         ... NOT available
Auxiliary 'external' fitting basis          ... NOT available

Checking pre-screening integrals            ... done (  0.0 sec) Dimension = 291
Check shell pair data                       ... done (  0.0 sec)
Shell pair information
Shell pair cut-off parameter TPreSel        ...   1.0e-12
Total number of shell pairs                 ...     42486
Shell pairs after pre-screening             ...     28271
Total number of primitive shell pairs       ...    133387
Primitive shell pairs kept                  ...     58261
          la=0 lb=0:   7454 shell pairs
          la=1 lb=0:   8433 shell pairs
          la=1 lb=1:   2451 shell pairs
          la=2 lb=0:   3804 shell pairs
          la=2 lb=1:   2179 shell pairs
          la=2 lb=2:    517 shell pairs
          la=3 lb=0:   1784 shell pairs
          la=3 lb=1:   1048 shell pairs
          la=3 lb=2:    476 shell pairs
          la=3 lb=3:    125 shell pairs

Calculating one electron integrals          ... done (  0.2 sec)
Calculating RI/J V-Matrix + Cholesky decomp.... done (  0.1 sec)
Calculating Nuclear repulsion               ... done (  0.0 sec) ENN=   2084.555380113035 Eh

Diagonalization of the overlap matrix:
Smallest eigenvalue                        ... 7.286e-05
Time for diagonalization                   ...    0.076 sec
Threshold for overlap eigenvalues          ... 1.000e-07
Number of eigenvalues below threshold      ... 0
Time for construction of square roots      ...    0.042 sec
Total time needed                          ...    0.120 sec

-------------------
DFT GRID GENERATION
-------------------

General Integration Accuracy     IntAcc      ... 4.388
Radial Grid Type                 RadialGrid  ... OptM3 with GC (2021)
Angular Grid (max. ang.)         AngularGrid ... 4 (Lebedev-302)
Angular grid pruning method      GridPruning ... 4 (adaptive)
Weight generation scheme         WeightScheme... mBecke (2022)
Basis function cutoff            BFCut       ... 1.0000e-11
Integration weight cutoff        WCut        ... 1.0000e-14
Partially contracted basis set               ... off
Rotationally invariant grid construction     ... off
Angular grids for H and He will be reduced by one unit

Total number of grid points                  ...   178702
Total number of batches                      ...     2808
Average number of points per batch           ...       63
Average number of grid points per atom       ...     4703

--------------------
COSX GRID GENERATION
--------------------

GRIDX 1
-------
General Integration Accuracy     IntAcc      ... 3.816
Radial Grid Type                 RadialGrid  ... OptM3 with GC (2021)
Angular Grid (max. ang.)         AngularGrid ... 1 (Lebedev-50)
Angular grid pruning method      GridPruning ... 4 (adaptive)
Weight generation scheme         WeightScheme... mBecke (2022)
Basis function cutoff            BFCut       ... 1.0000e-11
Integration weight cutoff        WCut        ... 1.0000e-14
Partially contracted basis set               ... on
Rotationally invariant grid construction     ... off
Angular grids for H and He will be reduced by one unit

Total number of grid points                  ...    25776
Total number of batches                      ...      225
Average number of points per batch           ...      114
Average number of grid points per atom       ...      678
UseSFitting                                  ... on

GRIDX 2
-------
General Integration Accuracy     IntAcc      ... 4.020
Radial Grid Type                 RadialGrid  ... OptM3 with GC (2021)
Angular Grid (max. ang.)         AngularGrid ... 2 (Lebedev-110)
Angular grid pruning method      GridPruning ... 4 (adaptive)
Weight generation scheme         WeightScheme... mBecke (2022)
Basis function cutoff            BFCut       ... 1.0000e-11
Integration weight cutoff        WCut        ... 1.0000e-14
Partially contracted basis set               ... on
Rotationally invariant grid construction     ... off
Angular grids for H and He will be reduced by one unit

Total number of grid points                  ...    48367
Total number of batches                      ...      396
Average number of points per batch           ...      122
Average number of grid points per atom       ...     1273
UseSFitting                                  ... on

GRIDX 3
-------
General Integration Accuracy     IntAcc      ... 4.338
Radial Grid Type                 RadialGrid  ... OptM3 with GC (2021)
Angular Grid (max. ang.)         AngularGrid ... 3 (Lebedev-194)
Angular grid pruning method      GridPruning ... 4 (adaptive)
Weight generation scheme         WeightScheme... mBecke (2022)
Basis function cutoff            BFCut       ... 1.0000e-11
Integration weight cutoff        WCut        ... 1.0000e-14
Partially contracted basis set               ... on
Rotationally invariant grid construction     ... off
Angular grids for H and He will be reduced by one unit

Total number of grid points                  ...   107192
Total number of batches                      ...      855
Average number of points per batch           ...      125
Average number of grid points per atom       ...     2821
UseSFitting                                  ... on
Initializing property integral containers    ... done (  0.0 sec)

SHARK setup successfully completed in   6.4 seconds

Maximum memory used throughout the entire STARTUP-calculation: 133.5 MB
-------------------------------------------------------------------------------
                                 ORCA GUESS
                   Start orbitals & Density for SCF / CASSCF
-------------------------------------------------------------------------------

------------
SCF SETTINGS
------------
Hamiltonian:
 Density Functional     Method          .... DFT(GTOs)
 Exchange Functional    Exchange        .... WB97X-V
 Correlation Functional Correlation     .... WB97X-V
 Gradients option       PostSCFGGA      .... off
 Hybrid DFT is turned on
   Fraction HF Exchange ScalHFX         ....  0.167000
   Scaling of DF-GGA-X  ScalDFX         ....  0.000000
   Scaling of DF-GGA-C  ScalDFC         ....  1.000000
   Scaling of DF-LDA-C  ScalLDAC        ....  1.000000
   Perturbative correction              ....  0.000000
 Long-range corrected/Screened/Range-Separated Hybrid DFT is turned on
   Amount of maximum screened exact exchange              ....  0.833000
   Range separation parameter mu (erf(mu*r12)/r12)        ....  0.300000
   NL short-range parameter             ....  6.000000
   NL long-range parameter              ....  0.010000
 RI-approximation to the Coulomb term is turned on
   Number of AuxJ basis functions       .... 1146
   RIJ-COSX (HFX calculated with COS-X)).... on


General Settings:
 Integral files         IntName         .... sp_gas
 Hartree-Fock type      HFTyp           .... RHF
 Total Charge           Charge          ....    0
 Multiplicity           Mult            ....    1
 Number of Electrons    NEL             ....  174
 Basis Dimension        Dim             ....  721
 Nuclear Repulsion      ENuc            ....   2084.5553801130 Eh

Convergence Acceleration:
 AO-DIIS                CNVDIIS         .... on
   Start iteration      DIISMaxIt       ....    12
   Startup error        DIISStart       ....  0.200000
   # of expansion vecs  DIISMaxEq       ....     5
   Bias factor          DIISBfac        ....   1.050
   Max. coefficient     DIISMaxC        ....  10.000
 MO-DIIS                CNVKDIIS        .... off
 Trust-Rad. Augm. Hess. CNVTRAH         .... auto
   Auto Start mean grad. ratio tolernc. ....  1.125000
   Auto Start start iteration           ....     1
   Auto Start num. interpolation iter.  ....    10
   Max. Number of Micro iterations      ....    24
   Max. Number of Macro iterations      .... Maxiter - #DIIS iter
   Number of Davidson start vectors     ....     2
   Converg. threshold    (grad. norm)   ....   1.000e-04
   Grad. Scal. Fac. for Micro threshold ....   0.100
   Minimum threshold for Micro iter.    ....   1.000e-02
   NR start threshold (gradient norm)   ....   1.000e-04
   Initial trust radius                 ....   0.400
   Minimum AH scaling param. (alpha)    ....   1.000
   Maximum AH scaling param. (alpha)    .... 1000.000
   Quad. conv. algorithm                .... NR
   White noise on init. David. guess    .... on
   Maximum white noise                  ....   0.010
   Pseudo random numbers                .... off
   Inactive MOs                         .... canonical
   Orbital update algorithm             .... Taylor
   Preconditioner                       .... Diag
   Full preconditioner red. dimension   ....   250
 SOSCF                  CNVSOSCF        .... on
   Start iteration      SOSCFMaxIt      ....   150
   Startup grad/error   SOSCFStart      ....  0.003300
   Hessian update       SOSCFHessUp     .... L-BFGS
 Level Shifting         CNVShift        .... on
   Level shift para.    LevelShift      ....    0.2500
   Turn off err/grad.   ShiftErr        ....    0.0010
 Zerner damping         CNVZerner       .... off
 Static damping         CNVDamp         .... on
   Fraction old density DampFac         ....    0.7000
   Max. Damping (<1)    DampMax         ....    0.9800
   Min. Damping (>=0)   DampMin         ....    0.0000
   Turn off err/grad.   DampErr         ....    0.1000

SCF Procedure:
 Maximum # iterations   MaxIter         ....   125
 SCF integral mode      SCFMode         .... Direct
   Integral package                     .... SHARK and LIBINT hybrid scheme
 Reset frequency        DirectResetFreq ....    20
 Integral Threshold     Thresh          ....  3.000e-11 Eh
 Primitive CutOff       TCut            ....  1.000e-12 Eh

Convergence Tolerance:
 Convergence Check Mode ConvCheckMode   .... Total+1el-Energy
 Convergence forced     ConvForced      .... 0
 Energy Change          TolE            ....  1.000e-07 Eh
 1-El. energy change                    ....  1.000e-04 Eh
 Orbital Gradient       TolG            ....  1.000e-04
 Orbital Rotation angle TolX            ....  1.000e-04
 DIIS Error             TolErr          ....  1.000e-07

---------------------
INITIAL GUESS: MOREAD
---------------------
Guess MOs are being read from file: sp_gas.ges
Input Geometry matches current geometry (good)
Atom 0: N(Shells)= 11 and 9 - projection required
Input basis set needs projection
NBasis(read)= 510
NBasis(calc)= 721
Basis set overlap was calculated
Using GuessMode=FMatrix for the initial guess
C*T matrix was formed
Effective Fockian was calculated
Effective Fockian was diagonalized
Initial density was built
                      ------------------
                      INITIAL GUESS DONE (   0.2 sec)
                      ------------------
             **** ENERGY FILE WAS UPDATED (sp_gas.en.tmp) ****
Finished Guess after   0.4 sec
Maximum memory used throughout the entire GUESS-calculation: 108.3 MB

-------------------------------------------------------------------------------------------
                                      ORCA LEAN-SCF
                              memory conserving SCF solver
-------------------------------------------------------------------------------------------

----------------------------------------D-I-I-S--------------------------------------------
Iteration    Energy (Eh)           Delta-E    RMSDP     MaxDP     DIISErr   Damp  Time(sec)
-------------------------------------------------------------------------------------------
               ***  Starting incremental Fock matrix formation  ***
    1    -1982.2540324583428628     0.00e+00  5.90e-04  3.23e-02  6.54e-02  0.700  88.6
    2    -1982.2726571911280189    -1.86e-02  4.99e-04  2.82e-02  4.76e-02  0.700  39.8
                               ***Turning on AO-DIIS***
    3    -1982.2865878809875539    -1.39e-02  4.00e-04  2.36e-02  3.41e-02  0.700  40.9
    4    -1982.2967818354909468    -1.02e-02  9.90e-04  5.89e-02  2.41e-02  0.000  39.3
                              *** Initializing SOSCF ***
---------------------------------------S-O-S-C-F--------------------------------------
Iteration    Energy (Eh)           Delta-E    RMSDP     MaxDP     MaxGrad    Time(sec)
--------------------------------------------------------------------------------------
    5    -1982.3229510415417280    -2.62e-02  5.18e-05  2.73e-03  1.75e-03    42.8
               *** Restarting incremental Fock matrix formation ***
    6    -1982.3230970564800373    -1.46e-04  3.16e-05  1.71e-03  5.90e-04    90.2
    7    -1982.3231337524639457    -3.67e-05  2.45e-05  1.70e-03  4.69e-04    57.0
    8    -1982.3231412868835832    -7.53e-06  8.23e-06  4.02e-04  2.65e-04    57.8
    9    -1982.3231439556452642    -2.67e-06  2.77e-06  1.35e-04  7.93e-05    51.1
   10    -1982.3231440337194726    -7.81e-08  1.36e-06  9.01e-05  3.26e-05    46.2
                 **** Energy Check signals convergence ****

               *****************************************************
               *                     SUCCESS                       *
               *           SCF CONVERGED AFTER  10 CYCLES          *
               *****************************************************


------------------
NL GRID GENERATION
------------------

General Integration Accuracy     IntAcc      ... 4.004
Radial Grid Type                 RadialGrid  ... OptM3 with GC (2021)
Angular Grid (max. ang.)         AngularGrid ... 2 (Lebedev-110)
Angular grid pruning method      GridPruning ... 4 (adaptive)
Weight generation scheme         WeightScheme... mBecke (2022)
Basis function cutoff            BFCut       ... 1.0000e-10
Integration weight cutoff        WCut        ... 1.0000e-14
Partially contracted basis set               ... off
Rotationally invariant grid construction     ... off
Angular grids for H and He will be reduced by one unit

Total number of grid points                  ...    54822
Total number of batches                      ...      876
Average number of points per batch           ...       62
Average number of grid points per atom       ...     1443
Final grid set up in    0.7 sec

-------------------------------------------------------------------------------
                    post-SCF DFT-NL dispersion correction                      
-------------------------------------------------------------------------------

SCF Energy:    -1982.323144034 
NL    Energy:      0.666436076 
SC+NL Energy:  -1981.656707957 
NL done in  :             13.6 sec
-------------------------------------------------------------------------------
Recomputing exchange energy using gridx3       ... done (  175.092 sec)
Old exchange energy                            :    -53.122437165 Eh
New exchange energy                            :    -53.122476458 Eh
Exchange energy change after final integration :     -0.000039292 Eh
Total energy after final integration           :  -1981.656747250 Eh
             **** ENERGY FILE WAS UPDATED (sp_gas.en.tmp) ****

----------------
TOTAL SCF ENERGY
----------------

Total Energy       :      -1981.65674724970108 Eh          -53923.62152 eV

Components:
Nuclear Repulsion  :       2084.55538011303543 Eh           56723.63567 eV
Electronic Energy  :      -4066.87852414675490 Eh         -110665.39076 eV
One Electron Energy:      -6874.93971709676407 Eh         -187076.62049 eV
Two Electron Energy:       2808.06119295000917 Eh           76411.22973 eV

Virial components:
Potential Energy   :      -3957.70933831440925 Eh         -107694.74619 eV
Kinetic Energy     :       1976.05259106470794 Eh           53771.12467 eV
Virial Ratio       :          2.00283603594881

DFT components:
N(Alpha)           :       86.999971635946 electrons
N(Beta)            :       86.999971635946 electrons
N(Total)           :      173.999943271893 electrons
E(X)               :     -127.169106548839 Eh       
E(C)               :       -7.789907108394 Eh       
NL Energy, E(C,NL) :        0.666436076403 Eh       
E(XC)              :     -134.292577580830 Eh       

---------------
SCF CONVERGENCE
---------------

  Last Energy change         ...    7.8074e-08  Tolerance :   1.0000e-07
  Last MAX-Density change    ...    9.0099e-05  Tolerance :   1.0000e-05
  Last RMS-Density change    ...    1.3558e-06  Tolerance :   1.0000e-06
  Last DIIS Error            ...    1.7535e-03  Tolerance :   1.0000e-07
  Last Orbital Gradient      ...    3.2564e-05  Tolerance :   1.0000e-04
  Last Orbital Rotation      ...    4.5431e-05  Tolerance :   1.0000e-04


----------------
ORBITAL ENERGIES
----------------

  NO   OCC          E(Eh)            E(eV) 
   0   2.0000     -88.883356     -2418.6391 
   1   2.0000     -88.815941     -2416.8046 
   2   2.0000     -77.214084     -2101.1020 
   3   2.0000     -19.265342      -524.2366 
   4   2.0000     -19.261099      -524.1212 
   5   2.0000     -19.258707      -524.0561 
   6   2.0000     -19.258056      -524.0384 
   7   2.0000     -19.204859      -522.5908 
   8   2.0000     -19.197901      -522.4015 
   9   2.0000     -10.410043      -283.2717 
  10   2.0000     -10.405746      -283.1547 
  11   2.0000     -10.341179      -281.3978 
  12   2.0000     -10.340466      -281.3784 
  13   2.0000     -10.337587      -281.3000 
  14   2.0000     -10.335347      -281.2391 
  15   2.0000     -10.331145      -281.1247 
  16   2.0000     -10.303222      -280.3649 
  17   2.0000     -10.275682      -279.6155 
  18   2.0000     -10.265282      -279.3325 
  19   2.0000      -8.062025      -219.3788 
  20   2.0000      -7.995909      -217.5797 
  21   2.0000      -6.776533      -184.3988 
  22   2.0000      -6.017525      -163.7452 
  23   2.0000      -6.014604      -163.6657 
  24   2.0000      -6.009081      -163.5154 
  25   2.0000      -5.951806      -161.9569 
  26   2.0000      -5.945622      -161.7886 
  27   2.0000      -5.945256      -161.7786 
  28   2.0000      -4.931409      -134.1905 
  29   2.0000      -4.930910      -134.1769 
  30   2.0000      -4.928725      -134.1174 
  31   2.0000      -1.243704       -33.8429 
  32   2.0000      -1.237429       -33.6722 
  33   2.0000      -1.214901       -33.0591 
  34   2.0000      -1.172882       -31.9157 
  35   2.0000      -1.150561       -31.3084 
  36   2.0000      -1.143739       -31.1227 
  37   2.0000      -0.979397       -26.6508 
  38   2.0000      -0.926575       -25.2134 
  39   2.0000      -0.910456       -24.7748 
  40   2.0000      -0.902165       -24.5492 
  41   2.0000      -0.865800       -23.5596 
  42   2.0000      -0.844205       -22.9720 
  43   2.0000      -0.824282       -22.4299 
  44   2.0000      -0.807899       -21.9841 
  45   2.0000      -0.776070       -21.1179 
  46   2.0000      -0.743233       -20.2244 
  47   2.0000      -0.700260       -19.0550 
  48   2.0000      -0.692058       -18.8319 
  49   2.0000      -0.675910       -18.3925 
  50   2.0000      -0.646612       -17.5952 
  51   2.0000      -0.641532       -17.4570 
  52   2.0000      -0.637209       -17.3393 
  53   2.0000      -0.620816       -16.8933 
  54   2.0000      -0.615639       -16.7524 
  55   2.0000      -0.604799       -16.4574 
  56   2.0000      -0.597684       -16.2638 
  57   2.0000      -0.594881       -16.1875 
  58   2.0000      -0.584459       -15.9039 
  59   2.0000      -0.583433       -15.8760 
  60   2.0000      -0.565828       -15.3970 
  61   2.0000      -0.564111       -15.3502 
  62   2.0000      -0.555531       -15.1168 
  63   2.0000      -0.542619       -14.7654 
  64   2.0000      -0.525928       -14.3112 
  65   2.0000      -0.519033       -14.1236 
  66   2.0000      -0.512417       -13.9436 
  67   2.0000      -0.508637       -13.8407 
  68   2.0000      -0.498608       -13.5678 
  69   2.0000      -0.493506       -13.4290 
  70   2.0000      -0.490560       -13.3488 
  71   2.0000      -0.477182       -12.9848 
  72   2.0000      -0.470170       -12.7940 
  73   2.0000      -0.467769       -12.7286 
  74   2.0000      -0.466769       -12.7014 
  75   2.0000      -0.464793       -12.6477 
  76   2.0000      -0.458167       -12.4674 
  77   2.0000      -0.447380       -12.1738 
  78   2.0000      -0.429746       -11.6940 
  79   2.0000      -0.418257       -11.3814 
  80   2.0000      -0.412243       -11.2177 
  81   2.0000      -0.407540       -11.0897 
  82   2.0000      -0.398316       -10.8387 
  83   2.0000      -0.390120       -10.6157 
  84   2.0000      -0.369967       -10.0673 
  85   2.0000      -0.342254        -9.3132 
  86   2.0000      -0.334681        -9.1071 
  87   0.0000       0.054606         1.4859 
  88   0.0000       0.083282         2.2662 
  89   0.0000       0.092492         2.5168 
  90   0.0000       0.104615         2.8467 
  91   0.0000       0.110241         2.9998 
  92   0.0000       0.112456         3.0601 
  93   0.0000       0.116633         3.1738 
  94   0.0000       0.125867         3.4250 
  95   0.0000       0.132766         3.6128 
  96   0.0000       0.139260         3.7895 
  97   0.0000       0.145039         3.9467 
*Only the first 10 virtual orbitals were printed.

                    ********************************
                    * MULLIKEN POPULATION ANALYSIS *
                    ********************************

-----------------------
MULLIKEN ATOMIC CHARGES
-----------------------
   0 C :   -0.310852
   1 C :   -0.052016
   2 O :   -0.233052
   3 C :    0.285102
   4 O :   -0.350470
   5 C :   -0.202931
   6 C :    0.033223
   7 H :    0.152066
   8 C :    0.253041
   9 O :   -0.354453
  10 O :   -0.207211
  11 C :   -0.048045
  12 C :   -0.324535
  13 S :   -0.185883
  14 P :    0.634889
  15 S :   -0.386558
  16 O :   -0.320757
  17 C :   -0.193380
  18 O :   -0.284519
  19 C :   -0.223841
  20 H :    0.119049
  21 H :    0.116354
  22 H :    0.115608
  23 H :    0.116142
  24 H :    0.119497
  25 H :    0.147899
  26 H :    0.149358
  27 H :    0.104795
  28 H :    0.124874
  29 H :    0.123064
  30 H :    0.132179
  31 H :    0.110485
  32 H :    0.132702
  33 H :    0.129218
  34 H :    0.147517
  35 H :    0.136534
  36 H :    0.148819
  37 H :    0.146088
Sum of atomic charges:   -0.0000000

--------------------------------
MULLIKEN REDUCED ORBITAL CHARGES
--------------------------------
  0 C s       :     3.214850  s :     3.214850
      pz      :     1.043240  p :     3.037920
      px      :     1.033435
      py      :     0.961245
      dz2     :     0.014242  d :     0.054709
      dxz     :     0.003043
      dyz     :     0.014978
      dx2y2   :     0.017084
      dxy     :     0.005362
      f0      :     0.000388  f :     0.003373
      f+1     :     0.000413
      f-1     :     0.000664
      f+2     :     0.000496
      f-2     :     0.000258
      f+3     :     0.000648
      f-3     :     0.000507

  1 C s       :     3.212323  s :     3.212323
      pz      :     1.049745  p :     2.702936
      px      :     0.649528
      py      :     1.003663
      dz2     :     0.019690  d :     0.127410
      dxz     :     0.027785
      dyz     :     0.019491
      dx2y2   :     0.034497
      dxy     :     0.025947
      f0      :     0.001230  f :     0.009346
      f+1     :     0.000894
      f-1     :     0.000814
      f+2     :     0.001944
      f-2     :     0.000336
      f+3     :     0.001655
      f-3     :     0.002471

  2 O s       :     3.743851  s :     3.743851
      pz      :     1.669178  p :     4.449517
      px      :     1.243154
      py      :     1.537185
      dz2     :     0.004803  d :     0.037653
      dxz     :     0.005588
      dyz     :     0.005997
      dx2y2   :     0.010620
      dxy     :     0.010645
      f0      :     0.000239  f :     0.002031
      f+1     :     0.000298
      f-1     :     0.000214
      f+2     :     0.000239
      f-2     :     0.000279
      f+3     :     0.000414
      f-3     :     0.000347

  3 C s       :     3.106069  s :     3.106069
      pz      :     0.721252  p :     2.305253
      px      :     0.863666
      py      :     0.720335
      dz2     :     0.036004  d :     0.278980
      dxz     :     0.033193
      dyz     :     0.055823
      dx2y2   :     0.080383
      dxy     :     0.073577
      f0      :     0.001503  f :     0.024596
      f+1     :     0.001826
      f-1     :     0.003734
      f+2     :     0.003163
      f-2     :     0.003412
      f+3     :     0.003923
      f-3     :     0.007036

  4 O s       :     3.811879  s :     3.811879
      pz      :     1.412878  p :     4.505148
      px      :     1.707008
      py      :     1.385262
      dz2     :     0.004681  d :     0.031595
      dxz     :     0.003032
      dyz     :     0.008248
      dx2y2   :     0.008018
      dxy     :     0.007616
      f0      :     0.000108  f :     0.001848
      f+1     :     0.000083
      f-1     :     0.000324
      f+2     :     0.000245
      f-2     :     0.000286
      f+3     :     0.000374
      f-3     :     0.000428

  5 C s       :     3.152915  s :     3.152915
      pz      :     1.050450  p :     2.963866
      px      :     0.902250
      py      :     1.011167
      dz2     :     0.015576  d :     0.080815
      dxz     :     0.012062
      dyz     :     0.013854
      dx2y2   :     0.026071
      dxy     :     0.013251
      f0      :     0.000733  f :     0.005335
      f+1     :     0.000581
      f-1     :     0.000615
      f+2     :     0.000697
      f-2     :     0.000433
      f+3     :     0.001054
      f-3     :     0.001223

  6 C s       :     3.073043  s :     3.073043
      pz      :     0.935897  p :     2.762142
      px      :     0.826759
      py      :     0.999486
      dz2     :     0.025974  d :     0.124662
      dxz     :     0.025612
      dyz     :     0.025061
      dx2y2   :     0.029686
      dxy     :     0.018328
      f0      :     0.001205  f :     0.006931
      f+1     :     0.000911
      f-1     :     0.001213
      f+2     :     0.001012
      f-2     :     0.000618
      f+3     :     0.000728
      f-3     :     0.001243

  7 H s       :     0.824245  s :     0.824245
      pz      :     0.007330  p :     0.023689
      px      :     0.004168
      py      :     0.012192

  8 C s       :     3.120557  s :     3.120557
      pz      :     0.850975  p :     2.324687
      px      :     0.745460
      py      :     0.728252
      dz2     :     0.075611  d :     0.276827
      dxz     :     0.030220
      dyz     :     0.056951
      dx2y2   :     0.047388
      dxy     :     0.066657
      f0      :     0.003654  f :     0.024889
      f+1     :     0.001749
      f-1     :     0.005948
      f+2     :     0.004320
      f-2     :     0.002757
      f+3     :     0.003866
      f-3     :     0.002594

  9 O s       :     3.795480  s :     3.795480
      pz      :     1.561775  p :     4.525688
      px      :     1.410985
      py      :     1.552928
      dz2     :     0.006267  d :     0.031417
      dxz     :     0.005115
      dyz     :     0.008777
      dx2y2   :     0.005228
      dxy     :     0.006030
      f0      :     0.000214  f :     0.001867
      f+1     :     0.000082
      f-1     :     0.000475
      f+2     :     0.000370
      f-2     :     0.000400
      f+3     :     0.000146
      f-3     :     0.000182

 10 O s       :     3.745918  s :     3.745918
      pz      :     1.386883  p :     4.420926
      px      :     1.691322
      py      :     1.342722
      dz2     :     0.011792  d :     0.038312
      dxz     :     0.004262
      dyz     :     0.007636
      dx2y2   :     0.008497
      dxy     :     0.006125
      f0      :     0.000343  f :     0.002055
      f+1     :     0.000197
      f-1     :     0.000383
      f+2     :     0.000325
      f-2     :     0.000105
      f+3     :     0.000340
      f-3     :     0.000363

 11 C s       :     3.201770  s :     3.201770
      pz      :     0.692500  p :     2.706044
      px      :     1.045986
      py      :     0.967558
      dz2     :     0.027054  d :     0.130801
      dxz     :     0.027043
      dyz     :     0.035752
      dx2y2   :     0.018628
      dxy     :     0.022324
      f0      :     0.002495  f :     0.009431
      f+1     :     0.001818
      f-1     :     0.001680
      f+2     :     0.000935
      f-2     :     0.000669
      f+3     :     0.001019
      f-3     :     0.000816

 12 C s       :     3.226159  s :     3.226159
      pz      :     1.045563  p :     3.041039
      px      :     1.077083
      py      :     0.918393
      dz2     :     0.010157  d :     0.053948
      dxz     :     0.003499
      dyz     :     0.012078
      dx2y2   :     0.012404
      dxy     :     0.015809
      f0      :     0.000609  f :     0.003389
      f+1     :     0.000235
      f-1     :     0.000449
      f+2     :     0.000414
      f-2     :     0.000018
      f+3     :     0.000917
      f-3     :     0.000747

 13 S s       :     5.835680  s :     5.835680
      pz      :     3.856391  p :    10.223032
      px      :     3.047215
      py      :     3.319426
      dz2     :     0.017802  d :     0.116647
      dxz     :     0.012641
      dyz     :     0.009246
      dx2y2   :     0.037760
      dxy     :     0.039197
      f0      :     0.001104  f :     0.010525
      f+1     :     0.001826
      f-1     :     0.001168
      f+2     :     0.000835
      f-2     :     0.000733
      f+3     :     0.002860
      f-3     :     0.001999

 14 P s       :     5.254251  s :     5.254251
      pz      :     2.706947  p :     8.169989
      px      :     2.687814
      py      :     2.775227
      dz2     :     0.204068  d :     0.846119
      dxz     :     0.153961
      dyz     :     0.152298
      dx2y2   :     0.152727
      dxy     :     0.183065
      f0      :     0.016034  f :     0.094753
      f+1     :     0.018111
      f-1     :     0.014317
      f+2     :     0.010750
      f-2     :     0.010223
      f+3     :     0.014507
      f-3     :     0.010811

 15 S s       :     5.810759  s :     5.810759
      pz      :     3.477599  p :    10.495040
      px      :     3.633256
      py      :     3.384185
      dz2     :     0.010454  d :     0.073484
      dxz     :     0.010418
      dyz     :     0.026321
      dx2y2   :     0.012719
      dxy     :     0.013573
      f0      :     0.000757  f :     0.007275
      f+1     :     0.000428
      f-1     :     0.001655
      f+2     :     0.001470
      f-2     :     0.001539
      f+3     :     0.000739
      f-3     :     0.000687

 16 O s       :     3.729302  s :     3.729302
      pz      :     1.429176  p :     4.559082
      px      :     1.403064
      py      :     1.726842
      dz2     :     0.010083  d :     0.030782
      dxz     :     0.005377
      dyz     :     0.004007
      dx2y2   :     0.005964
      dxy     :     0.005351
      f0      :     0.000193  f :     0.001591
      f+1     :     0.000306
      f-1     :     0.000182
      f+2     :     0.000196
      f-2     :     0.000183
      f+3     :     0.000256
      f-3     :     0.000275

 17 C s       :     3.241479  s :     3.241479
      pz      :     0.737538  p :     2.850070
      px      :     1.031048
      py      :     1.081485
      dz2     :     0.022020  d :     0.094488
      dxz     :     0.018432
      dyz     :     0.033633
      dx2y2   :     0.009993
      dxy     :     0.010411
      f0      :     0.001829  f :     0.007342
      f+1     :     0.001248
      f-1     :     0.001317
      f+2     :     0.001207
      f-2     :     0.001151
      f+3     :     0.000201
      f-3     :     0.000388

 18 O s       :     3.737133  s :     3.737133
      pz      :     1.219449  p :     4.514529
      px      :     1.745969
      py      :     1.549111
      dz2     :     0.007071  d :     0.031233
      dxz     :     0.005059
      dyz     :     0.011511
      dx2y2   :     0.003873
      dxy     :     0.003719
      f0      :     0.000400  f :     0.001624
      f+1     :     0.000315
      f-1     :     0.000453
      f+2     :     0.000171
      f-2     :     0.000162
      f+3     :     0.000066
      f-3     :     0.000057

 19 C s       :     3.246350  s :     3.246350
      pz      :     0.830257  p :     2.873111
      px      :     1.098281
      py      :     0.944574
      dz2     :     0.025578  d :     0.097045
      dxz     :     0.016126
      dyz     :     0.021550
      dx2y2   :     0.010658
      dxy     :     0.023133
      f0      :     0.001175  f :     0.007334
      f+1     :     0.000786
      f-1     :     0.001905
      f+2     :     0.001103
      f-2     :     0.001254
      f+3     :     0.000381
      f-3     :     0.000731

 20 H s       :     0.859969  s :     0.859969
      pz      :     0.006553  p :     0.020983
      px      :     0.004437
      py      :     0.009992

 21 H s       :     0.862687  s :     0.862687
      pz      :     0.011639  p :     0.020958
      px      :     0.005001
      py      :     0.004318

 22 H s       :     0.863314  s :     0.863314
      pz      :     0.004214  p :     0.021077
      px      :     0.012756
      py      :     0.004107

 23 H s       :     0.863308  s :     0.863308
      pz      :     0.006650  p :     0.020550
      px      :     0.002896
      py      :     0.011004

 24 H s       :     0.859906  s :     0.859906
      pz      :     0.012598  p :     0.020597
      px      :     0.003571
      py      :     0.004429

 25 H s       :     0.830013  s :     0.830013
      pz      :     0.006745  p :     0.022089
      px      :     0.004157
      py      :     0.011187

 26 H s       :     0.828824  s :     0.828824
      pz      :     0.012414  p :     0.021818
      px      :     0.004789
      py      :     0.004615

 27 H s       :     0.874668  s :     0.874668
      pz      :     0.006386  p :     0.020537
      px      :     0.006906
      py      :     0.007244

 28 H s       :     0.854612  s :     0.854612
      pz      :     0.003094  p :     0.020514
      px      :     0.012930
      py      :     0.004491

 29 H s       :     0.855872  s :     0.855872
      pz      :     0.007435  p :     0.021064
      px      :     0.006889
      py      :     0.006740

 30 H s       :     0.846777  s :     0.846777
      pz      :     0.004616  p :     0.021044
      px      :     0.012112
      py      :     0.004317

 31 H s       :     0.868566  s :     0.868566
      pz      :     0.011420  p :     0.020949
      px      :     0.004419
      py      :     0.005111

 32 H s       :     0.846921  s :     0.846921
      pz      :     0.002773  p :     0.020377
      px      :     0.012227
      py      :     0.005377

 33 H s       :     0.850719  s :     0.850719
      pz      :     0.005151  p :     0.020063
      px      :     0.006345
      py      :     0.008567

 34 H s       :     0.832105  s :     0.832105
      pz      :     0.005852  p :     0.020378
      px      :     0.003818
      py      :     0.010708

 35 H s       :     0.843163  s :     0.843163
      pz      :     0.009688  p :     0.020302
      px      :     0.004143
      py      :     0.006471

 36 H s       :     0.830665  s :     0.830665
      pz      :     0.003174  p :     0.020516
      px      :     0.008631
      py      :     0.008711

 37 H s       :     0.833822  s :     0.833822
      pz      :     0.003055  p :     0.020090
      px      :     0.011783
      py      :     0.005252


------------------------
MULLIKEN OVERLAP CHARGES
------------------------
B(  0-C ,  1-C ) :   0.6375 B(  0-C ,  2-O ) :  -0.0821 B(  0-C , 20-H ) :   0.8127 
B(  0-C , 21-H ) :   0.8116 B(  0-C , 22-H ) :   0.8211 B(  0-C , 23-H ) :  -0.0737 
B(  0-C , 24-H ) :  -0.0668 B(  1-C ,  2-O ) :   0.4548 B(  1-C ,  3-C ) :  -0.0770 
B(  1-C , 20-H ) :  -0.0594 B(  1-C , 21-H ) :  -0.0605 B(  1-C , 22-H ) :  -0.0784 
B(  1-C , 23-H ) :   0.8423 B(  1-C , 24-H ) :   0.8371 B(  2-O ,  3-C ) :   0.8504 
B(  2-O ,  4-O ) :  -0.1612 B(  2-O ,  5-C ) :  -0.2208 B(  2-O , 23-H ) :  -0.0739 
B(  2-O , 24-H ) :  -0.0736 B(  3-C ,  4-O ) :   1.3251 B(  3-C ,  5-C ) :   0.6081 
B(  3-C ,  6-C ) :  -0.0524 B(  4-O ,  5-C ) :  -0.2474 B(  4-O ,  6-C ) :   0.0622 
B(  5-C ,  6-C ) :   0.3202 B(  5-C ,  7-H ) :  -0.0578 B(  5-C ,  8-C ) :  -0.0935 
B(  5-C , 25-H ) :   0.7178 B(  5-C , 26-H ) :   0.8194 B(  6-C ,  7-H ) :   0.8548 
B(  6-C ,  8-C ) :   0.3857 B(  6-C ,  9-O ) :  -0.1657 B(  6-C , 10-O ) :  -0.1590 
B(  6-C , 13-S ) :   0.3989 B(  6-C , 26-H ) :  -0.1024 B(  7-H ,  8-C ) :  -0.0882 
B(  7-H , 13-S ) :  -0.0662 B(  8-C ,  9-O ) :   1.3556 B(  8-C , 10-O ) :   0.7576 
B(  8-C , 11-C ) :  -0.0719 B(  9-O , 10-O ) :  -0.1722 B( 10-O , 11-C ) :   0.4317 
B( 10-O , 12-C ) :  -0.0672 B( 10-O , 27-H ) :  -0.0848 B( 10-O , 28-H ) :  -0.0573 
B( 11-C , 12-C ) :   0.5951 B( 11-C , 27-H ) :   0.8541 B( 11-C , 28-H ) :   0.8233 
B( 11-C , 30-H ) :  -0.0627 B( 11-C , 31-H ) :  -0.0837 B( 12-C , 27-H ) :  -0.0932 
B( 12-C , 29-H ) :   0.8007 B( 12-C , 30-H ) :   0.8254 B( 12-C , 31-H ) :   0.8185 
B( 13-S , 14-P ) :   0.7235 B( 13-S , 15-S ) :  -0.1200 B( 13-S , 16-O ) :  -0.0611 
B( 13-S , 18-O ) :  -0.0725 B( 14-P , 15-S ) :   1.4417 B( 14-P , 16-O ) :   0.7863 
B( 14-P , 17-C ) :  -0.0620 B( 14-P , 18-O ) :   0.8317 B( 14-P , 19-C ) :  -0.0637 
B( 15-S , 16-O ) :  -0.0852 B( 15-S , 18-O ) :  -0.0889 B( 16-O , 17-C ) :   0.4692 
B( 16-O , 18-O ) :  -0.0620 B( 16-O , 32-H ) :  -0.0658 B( 16-O , 33-H ) :  -0.0780 
B( 16-O , 34-H ) :  -0.0665 B( 17-C , 32-H ) :   0.7920 B( 17-C , 33-H ) :   0.8185 
B( 17-C , 34-H ) :   0.8439 B( 18-O , 19-C ) :   0.4329 B( 18-O , 35-H ) :  -0.0693 
B( 18-O , 36-H ) :  -0.0787 B( 18-O , 37-H ) :  -0.0543 B( 19-C , 35-H ) :   0.8021 
B( 19-C , 36-H ) :   0.8297 B( 19-C , 37-H ) :   0.8146 B( 20-H , 21-H ) :  -0.0515 
B( 23-H , 24-H ) :  -0.0816 B( 27-H , 28-H ) :  -0.0757 B( 30-H , 31-H ) :  -0.0504 
B( 33-H , 34-H ) :  -0.0682 B( 35-H , 36-H ) :  -0.0616 B( 36-H , 37-H ) :  -0.0604 



                     *******************************
                     * LOEWDIN POPULATION ANALYSIS *
                     *******************************

----------------------
LOEWDIN ATOMIC CHARGES
----------------------
   0 C :   -0.303504
   1 C :   -0.276685
   2 O :    0.251201
   3 C :   -0.462432
   4 O :    0.101335
   5 C :   -0.225894
   6 C :   -0.387678
   7 H :    0.155191
   8 C :   -0.505957
   9 O :    0.089387
  10 O :    0.271763
  11 C :   -0.277305
  12 C :   -0.302478
  13 S :    0.403321
  14 P :   -0.035950
  15 S :   -0.095598
  16 O :    0.007758
  17 C :   -0.322460
  18 O :    0.022846
  19 C :   -0.326061
  20 H :    0.122340
  21 H :    0.121573
  22 H :    0.126149
  23 H :    0.127455
  24 H :    0.128892
  25 H :    0.161101
  26 H :    0.156803
  27 H :    0.123110
  28 H :    0.129349
  29 H :    0.124824
  30 H :    0.123625
  31 H :    0.123642
  32 H :    0.111275
  33 H :    0.103810
  34 H :    0.109307
  35 H :    0.112089
  36 H :    0.105614
  37 H :    0.108243

-------------------------------
LOEWDIN REDUCED ORBITAL CHARGES
-------------------------------
  0 C s       :     2.830429  s :     2.830429
      pz      :     1.070104  p :     3.190838
      px      :     1.061920
      py      :     1.058814
      dz2     :     0.060296  d :     0.256970
      dxz     :     0.018457
      dyz     :     0.067631
      dx2y2   :     0.080036
      dxy     :     0.030550
      f0      :     0.002385  f :     0.025267
      f+1     :     0.003687
      f-1     :     0.004006
      f+2     :     0.003176
      f-2     :     0.003963
      f+3     :     0.004430
      f-3     :     0.003620

  1 C s       :     2.809950  s :     2.809950
      pz      :     1.071528  p :     2.913383
      px      :     0.764948
      py      :     1.076908
      dz2     :     0.079659  d :     0.489494
      dxz     :     0.094231
      dyz     :     0.076290
      dx2y2   :     0.137458
      dxy     :     0.101856
      f0      :     0.006670  f :     0.063858
      f+1     :     0.008285
      f-1     :     0.004711
      f+2     :     0.010945
      f-2     :     0.004003
      f+3     :     0.012294
      f-3     :     0.016950

  2 O s       :     3.254970  s :     3.254970
      pz      :     1.562068  p :     4.385308
      px      :     1.292679
      py      :     1.530561
      dz2     :     0.010766  d :     0.102213
      dxz     :     0.018403
      dyz     :     0.011784
      dx2y2   :     0.030605
      dxy     :     0.030655
      f0      :     0.000593  f :     0.006309
      f+1     :     0.000517
      f-1     :     0.000479
      f+2     :     0.000992
      f-2     :     0.000805
      f+3     :     0.001184
      f-3     :     0.001738

  3 C s       :     2.751336  s :     2.751336
      pz      :     0.745801  p :     2.619021
      px      :     0.966451
      py      :     0.906769
      dz2     :     0.111853  d :     0.940077
      dxz     :     0.110051
      dyz     :     0.183756
      dx2y2   :     0.273221
      dxy     :     0.261197
      f0      :     0.009895  f :     0.151997
      f+1     :     0.011389
      f-1     :     0.015278
      f+2     :     0.022001
      f-2     :     0.021970
      f+3     :     0.025652
      f-3     :     0.045812

  4 O s       :     3.397714  s :     3.397714
      pz      :     1.358273  p :     4.429283
      px      :     1.597618
      py      :     1.473392
      dz2     :     0.007814  d :     0.065813
      dxz     :     0.005048
      dyz     :     0.015783
      dx2y2   :     0.017558
      dxy     :     0.019610
      f0      :     0.000489  f :     0.005854
      f+1     :     0.000172
      f-1     :     0.000743
      f+2     :     0.000899
      f-2     :     0.000844
      f+3     :     0.001346
      f-3     :     0.001362

  5 C s       :     2.770734  s :     2.770734
      pz      :     1.025799  p :     3.055349
      px      :     1.007455
      py      :     1.022096
      dz2     :     0.069838  d :     0.362475
      dxz     :     0.051713
      dyz     :     0.060567
      dx2y2   :     0.107946
      dxy     :     0.072411
      f0      :     0.004230  f :     0.037335
      f+1     :     0.004912
      f-1     :     0.003345
      f+2     :     0.005557
      f-2     :     0.004351
      f+3     :     0.006803
      f-3     :     0.008137

  6 C s       :     2.795421  s :     2.795421
      pz      :     1.029848  p :     3.054784
      px      :     0.973191
      py      :     1.051745
      dz2     :     0.101826  d :     0.490901
      dxz     :     0.093311
      dyz     :     0.101391
      dx2y2   :     0.113445
      dxy     :     0.080929
      f0      :     0.007488  f :     0.046571
      f+1     :     0.007595
      f-1     :     0.006368
      f+2     :     0.006923
      f-2     :     0.004950
      f+3     :     0.004752
      f-3     :     0.008497

  7 H s       :     0.781250  s :     0.781250
      pz      :     0.020089  p :     0.063560
      px      :     0.011526
      py      :     0.031945

  8 C s       :     2.757383  s :     2.757383
      pz      :     0.984633  p :     2.646979
      px      :     0.758078
      py      :     0.904269
      dz2     :     0.246922  d :     0.949220
      dxz     :     0.100611
      dyz     :     0.225862
      dx2y2   :     0.189946
      dxy     :     0.185879
      f0      :     0.021840  f :     0.152375
      f+1     :     0.010331
      f-1     :     0.038881
      f+2     :     0.025616
      f-2     :     0.019607
      f+3     :     0.019149
      f-3     :     0.016951

  9 O s       :     3.397871  s :     3.397871
      pz      :     1.539136  p :     4.441209
      px      :     1.349429
      py      :     1.552644
      dz2     :     0.013282  d :     0.065657
      dxz     :     0.008663
      dyz     :     0.022783
      dx2y2   :     0.011010
      dxy     :     0.009920
      f0      :     0.000725  f :     0.005876
      f+1     :     0.000327
      f-1     :     0.001521
      f+2     :     0.001191
      f-2     :     0.001097
      f+3     :     0.000530
      f-3     :     0.000484

 10 O s       :     3.251007  s :     3.251007
      pz      :     1.390205  p :     4.367548
      px      :     1.565159
      py      :     1.412185
      dz2     :     0.029025  d :     0.103313
      dxz     :     0.011935
      dyz     :     0.028182
      dx2y2   :     0.022266
      dxy     :     0.011903
      f0      :     0.001351  f :     0.006369
      f+1     :     0.000745
      f-1     :     0.001313
      f+2     :     0.001029
      f-2     :     0.000181
      f+3     :     0.000759
      f-3     :     0.000991

 11 C s       :     2.808287  s :     2.808287
      pz      :     0.796838  p :     2.914300
      px      :     1.061926
      py      :     1.055535
      dz2     :     0.123344  d :     0.490665
      dxz     :     0.091688
      dyz     :     0.118746
      dx2y2   :     0.081725
      dxy     :     0.075162
      f0      :     0.017720  f :     0.064053
      f+1     :     0.011205
      f-1     :     0.011428
      f+2     :     0.005766
      f-2     :     0.007449
      f+3     :     0.006173
      f-3     :     0.004313

 12 C s       :     2.829220  s :     2.829220
      pz      :     1.065303  p :     3.192221
      px      :     1.077746
      py      :     1.049172
      dz2     :     0.048030  d :     0.255800
      dxz     :     0.018381
      dyz     :     0.057564
      dx2y2   :     0.064628
      dxy     :     0.067196
      f0      :     0.003222  f :     0.025238
      f+1     :     0.001689
      f-1     :     0.003342
      f+2     :     0.002929
      f-2     :     0.003369
      f+3     :     0.006170
      f-3     :     0.004516

 13 S s       :     5.335848  s :     5.335848
      pz      :     3.704192  p :    10.025982
      px      :     2.997176
      py      :     3.324614
      dz2     :     0.031524  d :     0.207061
      dxz     :     0.027190
      dyz     :     0.012463
      dx2y2   :     0.064116
      dxy     :     0.071767
      f0      :     0.002189  f :     0.027788
      f+1     :     0.003414
      f-1     :     0.002249
      f+2     :     0.002608
      f-2     :     0.001745
      f+3     :     0.008957
      f-3     :     0.006625

 14 P s       :     4.774946  s :     4.774946
      pz      :     2.790976  p :     8.446291
      px      :     2.748703
      py      :     2.906612
      dz2     :     0.359723  d :     1.505547
      dxz     :     0.237390
      dyz     :     0.289796
      dx2y2   :     0.288104
      dxy     :     0.330534
      f0      :     0.050147  f :     0.309167
      f+1     :     0.055405
      f-1     :     0.051749
      f+2     :     0.035320
[...]
35 H  s               0.0       0.0       0.0       0.0       0.1       0.0
36 H  s               0.0       0.0       0.0       0.0       0.1       0.0
37 H  s               0.0       0.0       0.0       0.0       0.1       0.0

                    708       709       710       711       712       713   
                  22.41618  22.49099  22.52096  22.61261  22.64434  23.41040
                   0.00000   0.00000   0.00000   0.00000   0.00000   0.00000
                  --------  --------  --------  --------  --------  --------
 0 C  s               0.0      13.7       0.0       0.0       0.0       0.0
 1 C  s               0.0      83.0       0.7       0.1       0.0       1.1
 2 O  s               0.0       0.1       0.0       0.0       0.0       0.3
 2 O  px              0.0       0.1       0.0       0.0       0.0       0.1
 2 O  py              0.0       0.0       0.0       0.0       0.0       0.2
 3 C  s               0.0       1.1       0.0       0.0       0.0      68.4
 3 C  px              0.0       0.0       0.0       0.1       0.0       0.2
 4 O  s               0.0       0.0       0.0       0.0       0.0       0.7
 4 O  py              0.0       0.0       0.0       0.0       0.0       0.3
 5 C  s               0.0       0.1       0.2      94.8       3.1       0.0
 6 C  s               0.9       0.0       1.8       3.3      91.9       0.1
 6 C  px              0.0       0.0       0.0       0.0       0.1       0.0
 7 H  s               0.0       0.0       0.0       0.0       0.3       0.0
 8 C  s               0.1       0.0       1.0       0.1       0.6      26.1
 8 C  pz              0.0       0.0       0.0       0.0       0.1       0.1
 9 O  s               0.0       0.0       0.0       0.0       0.0       0.2
10 O  s               0.0       0.0       0.1       0.0       0.0       0.1
10 O  pz              0.0       0.0       0.1       0.0       0.0       0.0
10 O  py              0.0       0.0       0.0       0.0       0.0       0.1
11 C  s               4.1       0.6      83.6       0.0       2.1       0.4
12 C  s              71.4       0.1       9.7       0.0       0.2       0.0
13 S  s               0.0       0.0       0.0       0.0       0.4       0.0
17 C  s               0.7       0.0       0.0       0.1       0.0       0.0
19 C  s              21.4       0.1       1.7       0.1       0.2       0.0
23 H  s               0.0       0.2       0.0       0.0       0.0       0.0
24 H  s               0.0       0.2       0.0       0.0       0.0       0.0
25 H  s               0.0       0.0       0.0       0.2       0.0       0.0
26 H  s               0.0       0.0       0.0       0.2       0.0       0.0
27 H  s               0.0       0.0       0.2       0.0       0.0       0.0
28 H  s               0.0       0.0       0.2       0.0       0.0       0.0
29 H  s               0.1       0.0       0.0       0.0       0.0       0.0
30 H  s               0.1       0.0       0.0       0.0       0.0       0.0
31 H  s               0.1       0.0       0.0       0.0       0.0       0.0

                    714       715       716       717       718       719   
                  23.47068  43.93692  43.97125  44.01187  44.11439  44.28323
                   0.00000   0.00000   0.00000   0.00000   0.00000   0.00000
                  --------  --------  --------  --------  --------  --------
 1 C  s               0.3       0.0       0.0       0.0       0.0       0.1
 2 O  s               0.2       0.0       0.0       0.2       0.3      98.1
 3 C  s              26.2       0.0       0.0       0.0       0.0       0.0
 3 C  px              0.1       0.0       0.0       0.0       0.0       0.0
 4 O  s               0.3       0.0       1.2      91.2       6.6       0.3
 4 O  py              0.1       0.0       0.0       0.0       0.0       0.0
 6 C  s               0.2       0.0       0.0       0.0       0.0       0.0
 8 C  s              68.3       0.0       0.0       0.0       0.0       0.0
 8 C  pz              0.2       0.0       0.0       0.0       0.0       0.0
 8 C  dx2y2           0.1       0.0       0.0       0.0       0.0       0.0
 9 O  s               0.6       0.2       0.2       6.3      90.7       0.3
 9 O  pz              0.2       0.0       0.0       0.0       0.0       0.0
 9 O  py              0.2       0.0       0.0       0.0       0.0       0.0
10 O  s               0.3       0.1       0.0       1.2       1.6       1.1
10 O  py              0.4       0.0       0.0       0.0       0.0       0.0
11 C  s               1.0       0.0       0.0       0.0       0.0       0.0
16 O  s               0.0      98.5       1.0       0.0       0.2       0.0
18 O  s               0.0       1.0      97.4       0.9       0.5       0.0

                    720   
                  44.37432
                   0.00000
                  --------
 2 O  s               1.1
 4 O  s               0.6
 9 O  s               2.1
10 O  s              95.7


                      *****************************
                      * MAYER POPULATION ANALYSIS *
                      *****************************

  NA   - Mulliken gross atomic population
  ZA   - Total nuclear charge
  QA   - Mulliken gross atomic charge
  VA   - Mayer's total valence
  BVA  - Mayer's bonded valence
  FA   - Mayer's free valence

  ATOM       NA         ZA         QA         VA         BVA        FA
  0 C      6.3109     6.0000    -0.3109     3.9166     3.9166    -0.0000
  1 C      6.0520     6.0000    -0.0520     3.8753     3.8753    -0.0000
  2 O      8.2331     8.0000    -0.2331     2.1498     2.1498    -0.0000
  3 C      5.7149     6.0000     0.2851     4.3415     4.3415     0.0000
  4 O      8.3505     8.0000    -0.3505     2.1548     2.1548     0.0000
  5 C      6.2029     6.0000    -0.2029     3.8697     3.8697    -0.0000
  6 C      5.9668     6.0000     0.0332     3.8277     3.8277     0.0000
  7 H      0.8479     1.0000     0.1521     1.0088     1.0088     0.0000
  8 C      5.7470     6.0000     0.2530     4.3144     4.3144    -0.0000
  9 O      8.3545     8.0000    -0.3545     2.1754     2.1754     0.0000
 10 O      8.2072     8.0000    -0.2072     2.1559     2.1559    -0.0000
 11 C      6.0480     6.0000    -0.0480     3.8621     3.8621    -0.0000
 12 C      6.3245     6.0000    -0.3245     3.9153     3.9153    -0.0000
 13 S     16.1859    16.0000    -0.1859     2.2300     2.2300     0.0000
 14 P     14.3651    15.0000     0.6349     5.4163     5.4163    -0.0000
 15 S     16.3866    16.0000    -0.3866     2.0714     2.0714    -0.0000
 16 O      8.3208     8.0000    -0.3208     2.1005     2.1005     0.0000
 17 C      6.1934     6.0000    -0.1934     3.8673     3.8673     0.0000
 18 O      8.2845     8.0000    -0.2845     2.1251     2.1251    -0.0000
 19 C      6.2238     6.0000    -0.2238     3.8651     3.8651     0.0000
 20 H      0.8810     1.0000     0.1190     0.9760     0.9760    -0.0000
 21 H      0.8836     1.0000     0.1164     0.9762     0.9762    -0.0000
 22 H      0.8844     1.0000     0.1156     0.9753     0.9753    -0.0000
 23 H      0.8839     1.0000     0.1161     0.9691     0.9691     0.0000
 24 H      0.8805     1.0000     0.1195     0.9692     0.9692    -0.0000
 25 H      0.8521     1.0000     0.1479     0.9914     0.9914    -0.0000
 26 H      0.8506     1.0000     0.1494     0.9805     0.9805     0.0000
 27 H      0.8952     1.0000     0.1048     0.9737     0.9737    -0.0000
 28 H      0.8751     1.0000     0.1249     0.9705     0.9705     0.0000
 29 H      0.8769     1.0000     0.1231     0.9784     0.9784    -0.0000
 30 H      0.8678     1.0000     0.1322     0.9799     0.9799    -0.0000
 31 H      0.8895     1.0000     0.1105     0.9716     0.9716    -0.0000
 32 H      0.8673     1.0000     0.1327     0.9643     0.9643     0.0000
 33 H      0.8708     1.0000     0.1292     0.9718     0.9718    -0.0000
 34 H      0.8525     1.0000     0.1475     0.9751     0.9751     0.0000
 35 H      0.8635     1.0000     0.1365     0.9637     0.9637     0.0000
 36 H      0.8512     1.0000     0.1488     0.9627     0.9627     0.0000
 37 H      0.8539     1.0000     0.1461     0.9739     0.9739     0.0000

  Mayer bond orders larger than 0.100000
B(  0-C ,  1-C ) :   1.0021 B(  0-C , 20-H ) :   0.9739 B(  0-C , 21-H ) :   0.9737 
B(  0-C , 22-H ) :   0.9734 B(  1-C ,  2-O ) :   0.8726 B(  1-C , 23-H ) :   0.9735 
B(  1-C , 24-H ) :   0.9718 B(  2-O ,  3-C ) :   1.2543 B(  3-C ,  4-O ) :   2.0078 
B(  3-C ,  5-C ) :   1.0041 B(  5-C ,  6-C ) :   0.9881 B(  5-C , 25-H ) :   0.9219 
B(  5-C , 26-H ) :   0.9576 B(  6-C ,  7-H ) :   0.9542 B(  6-C ,  8-C ) :   0.9276 
B(  6-C , 13-S ) :   0.9122 B(  8-C ,  9-O ) :   2.0383 B(  8-C , 10-O ) :   1.2467 
B( 10-O , 11-C ) :   0.8649 B( 11-C , 12-C ) :   0.9981 B( 11-C , 27-H ) :   0.9774 
B( 11-C , 28-H ) :   0.9688 B( 12-C , 29-H ) :   0.9725 B( 12-C , 30-H ) :   0.9741 
B( 12-C , 31-H ) :   0.9732 B( 13-S , 14-P ) :   1.0511 B( 14-P , 15-S ) :   1.8874 
B( 14-P , 16-O ) :   1.1562 B( 14-P , 18-O ) :   1.2075 B( 16-O , 17-C ) :   0.8961 
B( 17-C , 32-H ) :   0.9709 B( 17-C , 33-H ) :   0.9704 B( 17-C , 34-H ) :   0.9726 
B( 18-O , 19-C ) :   0.8854 B( 19-C , 35-H ) :   0.9731 B( 19-C , 36-H ) :   0.9668 
B( 19-C , 37-H ) :   0.9690 

-------
TIMINGS
-------

Total SCF time: 0 days 0 hours 12 min 31 sec 

Total time                  ....     751.896 sec
Sum of individual times     ....     737.598 sec  ( 98.1%)

SCF preparation             ....       3.074 sec  (  0.4%)
Fock matrix formation       ....     726.283 sec  ( 96.6%)
  Startup                   ....       0.037 sec  (  0.0% of F)
  Split-RI-J                ....      33.826 sec  (  4.7% of F)
  Chain of spheres X        ....     661.828 sec  ( 91.1% of F)
  XC integration            ....      43.839 sec  (  6.0% of F)
    Basis function eval.    ....       8.794 sec  ( 20.1% of XC)
    Density eval.           ....      10.215 sec  ( 23.3% of XC)
    XC-Functional eval.     ....      14.335 sec  ( 32.7% of XC)
    XC-Potential eval.      ....       9.077 sec  ( 20.7% of XC)
Diagonalization             ....       0.000 sec  (  0.0%)
Density matrix formation    ....       0.155 sec  (  0.0%)
Total Energy calculation    ....       0.076 sec  (  0.0%)
Population analysis         ....       4.906 sec  (  0.7%)
Orbital Transformation      ....       0.354 sec  (  0.0%)
Orbital Orthonormalization  ....       0.000 sec  (  0.0%)
DIIS solution               ....       1.311 sec  (  0.2%)
  MO trafo                  ....       0.000 sec  (  0.0 % of DIIS)
  Orb grad                  ....       0.000 sec  (  0.0 % of DIIS)
  Energy W gradient         ....       0.000 sec  (  0.0 % of DIIS)
  DIIS error                ....       0.178 sec  ( 13.6 % of DIIS)
  DIIS work                 ....       0.948 sec  ( 72.3 % of DIIS)
  Form Q                    ....       0.000 sec  (  0.0 % of DIIS)
  Form QpQm                 ....       0.000 sec  (  0.0 % of DIIS)
  Exp/Cayley                ....       0.000 sec  (  0.0 % of DIIS)
  Orb update                ....       0.000 sec  (  0.0 % of DIIS)
  Wake-sleep                ....       0.005 sec  (  0.3 % of DIIS)
SOSCF solution              ....       0.766 sec  (  0.1%)
  MO trafo                  ....       0.384 sec  ( 50.2 % of SOSCF)
  Orb grad                  ....       0.008 sec  (  1.0 % of SOSCF)
  Rot update                ....       0.055 sec  (  7.2 % of SOSCF)
  Step                      ....       0.314 sec  ( 41.0 % of SOSCF)
Grid generation             ....       0.672 sec  (  0.1%)
Finished LeanSCF after 755.0 sec

Maximum memory used throughout the entire LEANSCF-calculation: 139.4 MB
------------------   -----------------
gCP correction             0.027708727
------------------   -----------------

-------------------------   --------------------
FINAL SINGLE POINT ENERGY     -1981.629038522701
-------------------------   --------------------


------------------------------------------------------------------------------
                              ORCA PROPERTY CALCULATIONS
------------------------------------------------------------------------------

GBWName                                 ... sp_gas.gbw
Number of atoms                         ...     38
Number of basis functions               ...    721
Max core memory                         ...   1024 MB

Electric properties:
Dipole moment                           ... YES
Quadrupole moment                       ...  NO
Static polarizability (Dipole/Dipole)   ...  NO
Static polarizability (Dipole/Quad.)    ...  NO
Static polarizability (Quad./Quad.)     ...  NO
Static polarizability (Velocity)        ...  NO

Atomic electric properties:
Dipole moment                           ...  NO
Quadrupole moment                       ...  NO
Static polarizability                   ...  NO

Choice of electric origin               ... Center of mass
Position of electric origin             ...     0.017449     0.015924    -0.119148

General magnetic properties:
Magnetizability                         ...  NO

EPR properties:
g-Tensor (aka g-matrix)                 ...  NO
Zero-Field splitting spin-orbit         ...  NO
Zero-field splitting spin-spin          ...  NO
Hyperfine couplings                     ...  NO (   0 nuclei)
Quadrupole couplings                    ...  NO (   0 nuclei)
Contact density                         ...  NO (   0 nuclei)

NMR properties:
Chemical shifts                         ...  NO (   0 nuclei)
Spin-rotation constants                 ...  NO (   0 nuclei)
Spin-spin couplings                     ...  NO (   0 nuclei,    0 pairs)

Choice of magnetic origin               ... GIAO
Position of magnetic origin             ...     0.000000     0.000000     0.000000

Properties with geometric perturbations:
SCF Hessian                             ...  NO
IR spectrum                             ...  NO
VCD spectrum                            ...  NO
X-ray spectroscopy properties:
SCF XES/XAS/RIXS spectra                ...  NO


-------------
DIPOLE MOMENT
-------------

Method             : SCF
Type of density    : Electron Density
Multiplicity       :   1
Irrep              :   0
Energy             : -1981.6567472497010840 Eh
Relativity type    : 
Basis              : AO
                                X                 Y                 Z
Electronic contribution:    -13.747072647       4.692794691      -4.690241027
Nuclear contribution   :     13.493604886      -5.747819153       4.765826460
                        -----------------------------------------
Total Dipole Moment    :     -0.253467761      -1.055024463       0.075585433
                        -----------------------------------------
Magnitude (a.u.)       :      1.087674437
Magnitude (Debye)      :      2.764648708



--------------------
Rotational spectrum 
--------------------
 
Rotational constants in cm-1:             0.014396             0.005408             0.004605 
Rotational constants in MHz :           431.574261           162.140123           138.068139 

Dipole components along the rotational axes: 
x,y,z [a.u.] :     0.207860     0.501840    -0.942330 
x,y,z [Debye]:     0.528337     1.275577    -2.395213 

 

Dipole moment calculation done in   1.2 sec 

Maximum memory used throughout the entire PROP-calculation: 94.4 MB

--------------------------------
SUGGESTED CITATIONS FOR THIS RUN
--------------------------------

Below you find a list of papers that are relevant to this ORCA run
We neither can nor want to force you to cite these papers, but we appreciate if you do
You receive ORCA, which is the product of decades of hard work by many enthusiastic individuals, for free
The only thing we kindly ask in return is that you cite our papers,
We deeply appreciate it, if you show your appreciation for ORCA by not just citing the generic ORCA reference.

Please note that relegating all ORCA citations to the supporting information does *not* help us.
SI sections are not indexed - citations you put there will not count into any citation statistics
But we need these citations in order to attract the funding resources that allow us to do what we are doing

Therefore, if you are a happy ORCA user, please consider citing a few of the papers listed below in the main body of your paper

In addition to the list printed below, the program has created the file sp_gas.bibtex that contains the list in bibtex format
You can import this file easily into all common literature databanks and citation aid programs


List of essential papers. We consider these as the minimum necessary citations

  1. Neese,F.
     Software update: the ORCA program system, version 5.0
     WIRES Comput. Molec. Sci., 2022 12(1)e1606
     doi.org/10.1002/wcms.1606

List of papers to cite with high priority. The work reported in these papers was absolutely
necessary for this run to complete.
Our perspective: the developers of density functionals and basis sets usually get cited in chemistry papers
Good! But without the algorithms to do something with them, the functionals or basis sets would not do anything.
Hence, in our opinion, the algorithm design and method developments papers are equally worthy of getting cited

  1. Neese,F.
     An improvement of the resolution of the identity approximation for the formation of the Coulomb matrix
     J. Comp. Chem., 2003 24(14)1740-1747
     doi.org/10.1002/jcc.10318
  2. Neese,F.; Wennmohs,F.; Hansen,A.; Becker,U.
     Efficient, approximate and parallel Hartree-Fock and hybrid DFT calculations. A 'chain-of-spheres' algorithm for the Hartree-Fock exchange
     Chem. Phys., 2009 356(1-3)98-109
     doi.org/10.1016/j.chemphys.2008.10.036
  3. Helmich-Paris,B.; de Souza,B.; Neese,F.; Izsák,R.
     An improved chain of spheres for exchange algorithm
     J. Chem. Phys., 2021 155 104109
     doi.org/doi: 10.1063/5.0058766.
  4. Neese,F.
     The SHARK Integral Generation and Digestion System
     J. Comp. Chem., 2022  1-16
     doi.org/10.1002/jcc.26942

List of suggested additional citations. These are papers that are important in the 'surrounding' of 
of this run, or papers that preceded the highly important papers. If you like your results we are grateful for a citation.

  1. Izsak,R.; Neese,F.
     An overlap fitted chain of spheres exchange method
     J. Chem. Phys., 2011 135 144105
     doi.org/10.1063/1.3646921
  2. Izsak,R.; Hansen,A.; Neese,F.
     The resolution of identity and chain of spheres approximations for the LPNO-CCSD singles Fock term
     Molec. Phys., 2012 110 2413-2417
     doi.org/10.1080/00268976.2012.687466
  3. Neese,F.
     The ORCA program system
     WIRES Comput. Molec. Sci., 2012 2(1)73-78
     doi.org/10.1002/wcms.81
  4. Izsak,R.; Neese,F.; Klopper,W.
     Robust fitting techniques in the chain of spheres approximation to the Fock exchange: The role of the complementary space
     J. Chem. Phys., 2013 139 
     doi.org/10.1063/1.4819264
  5. Neese,F.
     Software update: the ORCA program system, version 4.0
     WIRES Comput. Molec. Sci., 2018 8(1)1-6
     doi.org/10.1002/wcms.1327
  6. Neese,F.; Wennmohs,F.; Becker,U.; Riplinger,C.
     The ORCA quantum chemistry program package
     J. Chem. Phys., 2020 152 Art. No. L224108
     doi.org/10.1063/5.0004608

List of optional additional citations

  1. Neese,F.
     Approximate second-order SCF convergence for spin unrestricted wavefunctions
     Chem. Phys. Lett., 2000 325(1-3)93-98
     doi.org/10.1016/s0009-2614(00)00662-x

Timings for individual modules:

Sum of individual times          ...      764.005 sec (=  12.733 min)
Startup calculation              ...        6.611 sec (=   0.110 min)   0.9 %
SCF iterations                   ...      755.526 sec (=  12.592 min)  98.9 %
Property calculations            ...        1.868 sec (=   0.031 min)   0.2 %
                             ****ORCA TERMINATED NORMALLY****
TOTAL RUN TIME: 0 days 0 hours 12 minutes 51 seconds 447 msec
