
                                 *****************
                                 * O   R   C   A *
                                 *****************

                                            #,                                       
                                            ###                                      
                                            ####                                     
                                            #####                                    
                                            ######                                   
                                           ########,                                 
                                     ,,################,,,,,                         
                               ,,#################################,,                 
                          ,,##########################################,,             
                       ,#########################################, ''#####,          
                    ,#############################################,,   '####,        
                  ,##################################################,,,,####,       
                ,###########''''           ''''###############################       
              ,#####''   ,,,,##########,,,,          '''####'''          '####       
            ,##' ,,,,###########################,,,                        '##       
           ' ,,###''''                  '''############,,,                           
         ,,##''                                '''############,,,,        ,,,,,,###''
      ,#''                                            '''#######################'''  
     '                                                          ''''####''''         
             ,#######,   #######,   ,#######,      ##                                
            ,#'     '#,  ##    ##  ,#'     '#,    #''#        ,####,   ,####,        
            ##       ##  ##   ,#'  ##            #'  '#       #'       #'  '#        
            ##       ##  #######   ##           ,######,      #####,   #    #        
            '#,     ,#'  ##    ##  '#,     ,#' ,#      #,     #,   #   #,  ,#        
             '#######'   ##     ##  '#######'  #'      '#     '####' # '####'        



                #########################################################
                #                        -***-                          #
                #          Department of theory and spectroscopy        #
                #                                                       #
                #                      Frank Neese                      #
                #                                                       #
                #     Directorship, Architecture, Infrastructure        #
                #                    SHARK, DRIVERS                     #
                #        Core code/Algorithms in most modules           #
                #                                                       #
                #        Max Planck Institute fuer Kohlenforschung      #
                #                Kaiser Wilhelm Platz 1                 #
                #                 D-45470 Muelheim/Ruhr                 #
                #                      Germany                          #
                #                                                       #
                #                  All rights reserved                  #
                #                        -***-                          #
                #########################################################


                         Program Version 6.0.0  -   RELEASE  -


 With contributions from (in alphabetic order):
   Daniel Aravena         : Magnetic Suceptibility
   Michael Atanasov       : Ab Initio Ligand Field Theory (pilot matlab implementation)
   Alexander A. Auer      : GIAO ZORA, VPT2 properties, NMR spectrum
   Ute Becker             : All parallelization in ORCA, NUMFREQ, NUMCALC
   Giovanni Bistoni       : ED, misc. LED, open-shell LED, HFLD
   Martin Brehm           : Molecular dynamics
   Dmytro Bykov           : pre 5.0 version of the SCF Hessian
   Marcos Casanova-Páez   : Triplet and SCS-CIS(D). UHF-(DLPNO)-IP/EA/STEOM-CCSD. UHF-CVS-IP/STEOM-CCSD
   Vijay G. Chilkuri      : MRCI spin determinant printing, contributions to CSF-ICE
   Pauline Colinet        : FMM embedding
   Dipayan Datta          : RHF DLPNO-CCSD density
   Achintya Kumar Dutta   : EOM-CC, STEOM-CC
   Nicolas Foglia         : Exact transition moments, OPA infrastructure, MCD improvements
   Dmitry Ganyushin       : Spin-Orbit,Spin-Spin,Magnetic field MRCI
   Miquel Garcia          : C-PCM and meta-GGA Hessian, CCSD/C-PCM, Gaussian charge scheme
   Tiago L. C. Gouveia    : GS-ROHF, GS-ROCIS
   Yang Guo               : DLPNO-NEVPT2, F12-NEVPT2, CIM, IAO-localization
   Andreas Hansen         : Spin unrestricted coupled pair/coupled cluster methods
   Ingolf Harden          : AUTO-CI MPn and infrastructure 
   Benjamin Helmich-Paris : MC-RPA, TRAH-(SCF,CASSCF), AVAS, COSX integrals, SCF dyn. polar.
   Lee Huntington         : MR-EOM, pCC
   Robert Izsak           : Overlap fitted RIJCOSX, COSX-SCS-MP3, EOM
   Riya Kayal             : Wick's Theorem for AUTO-CI, AUTO-CI UHF-CCSDT
   Emily Kempfer          : AUTO-CI, RHF CISDT and CCSDT
   Christian Kollmar      : KDIIS, OOCD, Brueckner-CCSD(T), CCSD density, CASPT2, CASPT2-K, improved NEVPT2
   Axel Koslowski         : Symmetry handling
   Simone Kossmann        : Meta GGA functionals, TD-DFT gradient, OOMP2, (MP2 Hessian; deprecated post 5.0)
   Lucas Lang             : DCDCAS
   Marvin Lechner         : AUTO-CI (C++ implementation), FIC-MRCC
   Spencer Leger          : CASSCF response
   Dagmar Lenk            : GEPOL surface, SMD, ORCA-2-JSON
   Dimitrios Liakos       : Extrapolation schemes; Compound Job, initial MDCI parallelization
   Dimitrios Manganas     : Further ROCIS development; embedding schemes. LFT, Crystal Embedding
   Dimitrios Pantazis     : SARC Basis sets
   Anastasios Papadopoulos: AUTO-CI, single reference methods and gradients
   Taras Petrenko         : pre 6.0 DFT Hessian and TD-DFT gradient, (ASA, deprecated), ECA, 1-Electron XAS/XES, NRVS
   Peter Pinski           : DLPNO-MP2, DLPNO-MP2 Gradient
   Christoph Reimann      : Effective Core Potentials
   Marius Retegan         : Local ZFS, SOC
   Christoph Riplinger    : Optimizer, TS searches, QM/MM, DLPNO-CCSD(T), (RO)-DLPNO pert. Triples
   Michael Roemelt        : Original ROCIS implementation
   Masaaki Saitow         : Open-shell DLPNO-CCSD energy and density
   Barbara Sandhoefer     : DKH picture change effects
   Kantharuban Sivalingam : CASSCF convergence/infrastructure, NEVPT2 and variants, FIC-MRCI
   Bernardo de Souza      : ESD, SOC TD-DFT
   Georgi Stoychev        : AutoAux, RI-MP2 NMR, DLPNO-MP2 response, X2C
   Van Anh Tran           : RI-MP2 g-tensors
   Willem Van den Heuvel  : Paramagnetic NMR
   Zikuan Wang            : NOTCH, Electric field optimization 
   Frank Wennmohs         : Technical directorship and infrastructure
   Hang Xu                : AUTO-CI-Response properties 


 We gratefully acknowledge several colleagues who have allowed us to
 interface, adapt or use parts of their codes:
   Stefan Grimme, W. Hujo, H. Kruse, P. Pracht,  : VdW corrections, initial TS optimization,
                  C. Bannwarth, S. Ehlert,         DFT functionals, gCP, sTDA/sTD-DF
                  L. Wittmann, M. Mueller
   Ed Valeev, F. Pavosevic, A. Kumar             : LibInt (2-el integral package), F12 methods
   Garnet Chan, S. Sharma, J. Yang, R. Olivares  : DMRG
   Ulf Ekstrom                                   : XCFun DFT Library
   Mihaly Kallay                                 : mrcc  (arbitrary order and MRCC methods)
   Frank Weinhold                                : gennbo (NPA and NBO analysis)
   Simon Mueller                                 : openCOSMO-RS
   Christopher J. Cramer and Donald G. Truhlar   : smd solvation model
   Lars Goerigk                                  : TD-DFT with DH, B97 family of functionals
   V. Asgeirsson, H. Jonsson                     : NEB implementation
   FAccTs GmbH                                   : IRC, NEB, NEB-TS, DLPNO-Multilevel, CI-OPT
                                                   MM, QMMM, 2- and 3-layer-ONIOM, Crystal-QMMM,
                                                   LR-CPCM, SF, NACMEs, symmetry and pop. for TD-DFT,
                                                   nearIR, NL-DFT gradient (VV10), updates on ESD,
                                                   ML-optimized integration grids, MBIS, APM,
                                                   GOAT, DOCKER, SOLVATOR, interface openCOSMO-RS
   S Lehtola, MJT Oliveira, MAL Marques          : LibXC Library
   Liviu Ungur et al                             : ANISO software


 Your calculation uses the libint2 library for the computation of 2-el integrals
 For citations please refer to: http://libint.valeyev.net

 Your ORCA version has been built with support for libXC version: 6.2.2
 For citations please refer to: https://libxc.gitlab.io

 This ORCA versions uses:
   CBLAS   interface :  Fast vector & matrix operations
   LAPACKE interface :  Fast linear algebra routines
   SCALAPACK package :  Parallel linear algebra routines
   Shared memory     :  Shared parallel matrices
   BLAS/LAPACK       :  OpenBLAS 0.3.27  USE64BITINT DYNAMIC_ARCH NO_AFFINITY SapphireRapids SINGLE_THREADED
        Core in use  :  SapphireRapids
   Copyright (c) 2011-2014, The OpenBLAS Project


Your calculation utilizes the geometrical counterpoise correction gCP
Please cite in your paper:
H.Kruse, S. Grimme J.Chem.Phys., 136, (2012), 154101 
   

Your calculation utilizes the atom-pairwise dispersion correction
based on EEQ partial charges (D4)


================================================================================

----- Orbital basis set information -----
Your calculation utilizes the basis: def2-SV(P)
   F. Weigend and R. Ahlrichs, Phys. Chem. Chem. Phys. 7, 3297 (2005).

----- AuxJ basis set information -----
Your calculation utilizes the auxiliary basis: def2/J
   F. Weigend, Phys. Chem. Chem. Phys. 8, 1057 (2006).

================================================================================
                                        WARNINGS
                       Please study these warnings very carefully!
================================================================================


================================================================================
                                       INPUT FILE
================================================================================
NAME = sp.inp
|  1> ! pbe def2-sv(p) def2/J RI DEFGRID1 loosescf d4 GCP(DFT/SV(P)) printgap
|  2> %output
|  3>     printlevel normal
|  4> end
|  5> * xyz 0 1
|  6> C 3.2265599717 -0.79487444 -2.5390537834
|  7> C 3.2272020373 0.6734472354 -2.1725083241
|  8> O 2.1797592767 1.0083401019 -1.2310665117
|  9> P 2.0422648634 0.4499264445 0.2325624007
| 10> S 0.9573137062 1.5979573044 1.3870488643
| 11> O 3.5771415326 0.3652880594 0.6649382312
| 12> C 4.0138872304 0.319988591 2.0328416752
| 13> C 3.6084352293 -0.9611793118 2.7331739516
| 14> S 1.4092000097 -1.5874733896 0.1032201697
| 15> C 0.0717864541 -1.6087957524 1.3306477776
| 16> S -1.5625883804 -2.0045850313 0.6373415527
| 17> P -2.0457344873 -0.1960656571 -0.3045637294
| 18> S -0.8543715974 0.5282292506 -1.694606629
| 19> O -2.3186393621 0.7179494167 0.9537233518
| 20> C -2.5842471343 2.1326157235 0.8272346082
| 21> C -2.4667630039 2.7485830621 2.204734098
| 22> O -3.5170689284 -0.4657203375 -0.8423808092
| 23> C -3.7845631494 -1.0862052042 -2.1158191137
| 24> C -5.1108888884 -0.5621106185 -2.6291097353
| 25> H 3.4851865405 -1.402086884 -1.6727200628
| 26> H 2.2419647929 -1.0912309207 -2.8937802196
| 27> H 3.9568298711 -0.9661032979 -3.3237095078
| 28> H 2.9912117189 1.3018201545 -3.0328133011
| 29> H 4.1837900688 0.9720763001 -1.7387032044
| 30> H 5.0986886028 0.4104558306 1.9586640115
| 31> H 3.6035566361 1.190203577 2.5549006081
| 32> H 3.9009550771 -1.8255566665 2.1427307221
| 33> H 4.0948846677 -1.0050077471 3.7023392145
| 34> H 2.5300032339 -0.9797734681 2.8808598415
| 35> H 0.0250958788 -0.6331695073 1.8227600463
| 36> H 0.2785848084 -2.4082457019 2.0372192509
| 37> H -1.8544093454 2.562790925 0.1325296087
| 38> H -3.5884945385 2.251186617 0.4136674679
| 39> H -2.7112799251 3.8038667894 2.1443316215
| 40> H -3.1485429968 2.2539454968 2.8899524612
| 41> H -1.4490450325 2.6369587801 2.5716549595
| 42> H -2.9655436098 -0.8432585796 -2.801532345
| 43> H -3.8162142364 -2.1668272039 -1.9581633666
| 44> H -5.3502955428 -1.057703256 -3.5641317462
| 45> H -5.8934021839 -0.7628806204 -1.9031026453
| 46> H -5.0514385507 0.5097855388 -2.7972658241
| 47> *
| 48> 
| 49>                          ****END OF INPUT****
================================================================================

                       ****************************
                       * Single Point Calculation *
                       ****************************

---------------------------------
CARTESIAN COORDINATES (ANGSTROEM)
---------------------------------
  C      3.226560   -0.794874   -2.539054
  C      3.227202    0.673447   -2.172508
  O      2.179759    1.008340   -1.231067
  P      2.042265    0.449926    0.232562
  S      0.957314    1.597957    1.387049
  O      3.577142    0.365288    0.664938
  C      4.013887    0.319989    2.032842
  C      3.608435   -0.961179    2.733174
  S      1.409200   -1.587473    0.103220
  C      0.071786   -1.608796    1.330648
  S     -1.562588   -2.004585    0.637342
  P     -2.045734   -0.196066   -0.304564
  S     -0.854372    0.528229   -1.694607
  O     -2.318639    0.717949    0.953723
  C     -2.584247    2.132616    0.827235
  C     -2.466763    2.748583    2.204734
  O     -3.517069   -0.465720   -0.842381
  C     -3.784563   -1.086205   -2.115819
  C     -5.110889   -0.562111   -2.629110
  H      3.485187   -1.402087   -1.672720
  H      2.241965   -1.091231   -2.893780
  H      3.956830   -0.966103   -3.323710
  H      2.991212    1.301820   -3.032813
  H      4.183790    0.972076   -1.738703
  H      5.098689    0.410456    1.958664
  H      3.603557    1.190204    2.554901
  H      3.900955   -1.825557    2.142731
  H      4.094885   -1.005008    3.702339
  H      2.530003   -0.979773    2.880860
  H      0.025096   -0.633170    1.822760
  H      0.278585   -2.408246    2.037219
  H     -1.854409    2.562791    0.132530
  H     -3.588495    2.251187    0.413667
  H     -2.711280    3.803867    2.144332
  H     -3.148543    2.253945    2.889952
  H     -1.449045    2.636959    2.571655
  H     -2.965544   -0.843259   -2.801532
  H     -3.816214   -2.166827   -1.958163
  H     -5.350296   -1.057703   -3.564132
  H     -5.893402   -0.762881   -1.903103
  H     -5.051439    0.509786   -2.797266

----------------------------
CARTESIAN COORDINATES (A.U.)
----------------------------
  NO LB      ZA    FRAG     MASS         X           Y           Z
   0 C     6.0000    0    12.011    6.097315   -1.502095   -4.798116
   1 C     6.0000    0    12.011    6.098528    1.272631   -4.105446
   2 O     8.0000    0    15.999    4.119148    1.905487   -2.326379
   3 P    15.0000    0    30.974    3.859321    0.850238    0.439479
   4 S    16.0000    0    32.060    1.809061    3.019702    2.621142
   5 O     8.0000    0    15.999    6.759818    0.690294    1.256551
   6 C     6.0000    0    12.011    7.585148    0.604691    3.841514
   7 C     6.0000    0    12.011    6.818954   -1.816366    5.164950
   8 S    16.0000    0    32.060    2.663002   -2.999890    0.195058
   9 C     6.0000    0    12.011    0.135657   -3.040183    2.514560
  10 S    16.0000    0    32.060   -2.952864   -3.788117    1.204401
  11 P    15.0000    0    30.974   -3.865878   -0.370510   -0.575542
  12 S    16.0000    0    32.060   -1.614528    0.998209   -3.202342
  13 O     8.0000    0    15.999   -4.381593    1.356728    1.802276
  14 C     6.0000    0    12.011   -4.883519    4.030060    1.563247
  15 C     6.0000    0    12.011   -4.661507    5.194069    4.166344
  16 O     8.0000    0    15.999   -6.646297   -0.880084   -1.591869
  17 C     6.0000    0    12.011   -7.151788   -2.052630   -3.998319
  18 C     6.0000    0    12.011   -9.658180   -1.062235   -4.968297
  19 H     1.0000    0     1.008    6.586048   -2.649560   -3.160983
  20 H     1.0000    0     1.008    4.236699   -2.062128   -5.468452
  21 H     1.0000    0     1.008    7.477325   -1.825671   -6.280901
  22 H     1.0000    0     1.008    5.652571    2.460084   -5.731187
  23 H     1.0000    0     1.008    7.906217    1.836958   -3.285673
  24 H     1.0000    0     1.008    9.635125    0.775649    3.701339
  25 H     1.0000    0     1.008    6.809735    2.249159    4.828062
  26 H     1.0000    0     1.008    7.371737   -3.449802    4.049174
  27 H     1.0000    0     1.008    7.738211   -1.899189    6.996407
  28 H     1.0000    0     1.008    4.781013   -1.851504    5.444036
  29 H     1.0000    0     1.008    0.047424   -1.196517    3.444517
  30 H     1.0000    0     1.008    0.526449   -4.550925    3.849786
  31 H     1.0000    0     1.008   -3.504326    4.842973    0.250445
  32 H     1.0000    0     1.008   -6.781272    4.254126    0.781718
  33 H     1.0000    0     1.008   -5.123577    7.188266    4.052200
  34 H     1.0000    0     1.008   -5.949884    4.259340    5.461219
  35 H     1.0000    0     1.008   -2.738298    4.983130    4.859724
  36 H     1.0000    0     1.008   -5.604065   -1.593528   -5.294129
  37 H     1.0000    0     1.008   -7.211600   -4.094710   -3.700392
  38 H     1.0000    0     1.008  -10.110593   -1.998769   -6.735233
  39 H     1.0000    0     1.008  -11.136916   -1.441635   -3.596343
  40 H     1.0000    0     1.008   -9.545835    0.963355   -5.286066

--------------------------------
INTERNAL COORDINATES (ANGSTROEM)
--------------------------------
 C      0   0   0     0.000000000000     0.00000000     0.00000000
 C      1   0   0     1.513381818455     0.00000000     0.00000000
 O      2   1   0     1.447619513167   112.43648882     0.00000000
 P      3   2   1     1.572558463038   125.90227797    62.73858665
 S      4   3   2     1.956510379075   112.91233678   158.13390468
 O      4   3   2     1.596859074774   100.76563958    36.31725205
 C      6   4   3     1.436648418539   123.48265376   159.55537267
 C      7   6   4     1.515337526008   112.66643993    67.07198098
 S      4   3   2     2.137404642481   107.94229132   287.07010561
 C      9   4   3     1.815408547543   100.86411554   226.78154183
 S     10   9   4     1.818929293410   114.00391341   117.90990693
 P     11  10   9     2.095556739370   100.99352602   284.31728436
 S     12  11  10     1.968798595966   119.69135904    58.21981643
 O     12  11  10     1.578982901914   100.44171273   288.66546143
 C     14  12  11     1.444931711364   121.92097196   174.47840106
 C     15  14  12     1.513513504240   107.72883087   193.40535195
 O     12  11  10     1.589586705893   102.65493072   183.71524648
 C     17  12  11     1.441596248414   122.93156518   273.55159712
 C     18  17  12     1.515678845573   108.22166468   209.20286613
 H      1   2   3     1.089095390536   110.37567252   293.78108014
 H      1   2   3     1.087697418544   110.10383420    53.93080679
 H      1   2   3     1.085494382105   109.13762384   173.88321191
 H      2   1   3     1.091177624994   111.57208730   244.99332760
 H      2   1   3     1.091982995367   111.21825542   121.51168554
 H      7   6   4     1.091091501568   103.58599471   187.78240794
 H      7   6   4     1.094619042361   108.36589108   304.39364452
 H      8   7   6     1.086894327861   110.44458415    50.92967995
 H      8   7   6     1.085281205344   109.08250773   171.21433835
 H      8   7   6     1.088656251269   110.01033007   290.47602937
 H     10   9   4     1.093709771811   108.97707468   355.77268337
 H     10   9   4     1.086797602122   107.94051967   234.13305885
 H     15  14  12     1.095595243884   108.51006559   314.18910897
 H     15  14  12     1.092524455179   107.96048118    72.48391994
 H     16  15  14     1.084924296449   109.12886782   182.82412615
 H     16  15  14     1.085824334315   109.88983893   303.12167033
 H     16  15  14     1.087584832667   109.75022422    63.14771965
 H     18  17  12     1.095453652251   108.58792882   330.31880992
 H     18  17  12     1.092520495065   107.67583773    88.61832476
 H     19  18  17     1.084985607915   109.08618667   182.81372656
 H     19  18  17     1.086150056865   109.88671262   302.77843022
 H     19  18  17     1.086633417896   110.21985720    62.89492807

---------------------------
INTERNAL COORDINATES (A.U.)
---------------------------
 C      0   0   0     0.000000000000     0.00000000     0.00000000
 C      1   0   0     2.859877172936     0.00000000     0.00000000
 O      2   1   0     2.735604426005   112.43648882     0.00000000
 P      3   2   1     2.971704824722   125.90227797    62.73858665
 S      4   3   2     3.697268794626   112.91233678   158.13390468
 O      4   3   2     3.017626325789   100.76563958    36.31725205
 C      6   4   3     2.714872061770   123.48265376   159.55537267
 C      7   6   4     2.863572924609   112.66643993    67.07198098
 S      4   3   2     4.039109411662   107.94229132   287.07010561
 C      9   4   3     3.430624976037   100.86411554   226.78154183
 S     10   9   4     3.437278221511   114.00391341   117.90990693
 P     11  10   9     3.960028335502   100.99352602   284.31728436
 S     12  11  10     3.720490159225   119.69135904    58.21981643
 O     12  11  10     2.983845254762   100.44171273   288.66546143
 C     14  12  11     2.730525216696   121.92097196   174.47840106
 C     15  14  12     2.860126023005   107.72883087   193.40535195
 O     12  11  10     3.003883540261   102.65493072   183.71524648
 C     17  12  11     2.724222105190   122.93156518   273.55159712
 C     18  17  12     2.864217925110   108.22166468   209.20286613
 H      1   2   3     2.058092021829   110.37567252   293.78108014
 H      1   2   3     2.055450237622   110.10383420    53.93080679
 H      1   2   3     2.051287102088   109.13762384   173.88321191
 H      2   1   3     2.062026874701   111.57208730   244.99332760
 H      2   1   3     2.063548804143   111.21825542   121.51168554
 H      7   6   4     2.061864125012   103.58599471   187.78240794
 H      7   6   4     2.068530211037   108.36589108   304.39364452
 H      8   7   6     2.053932616171   110.44458415    50.92967995
 H      8   7   6     2.050884256392   109.08250773   171.21433835
 H      8   7   6     2.057262168879   110.01033007   290.47602937
 H     10   9   4     2.066811938716   108.97707468   355.77268337
 H     10   9   4     2.053749831013   107.94051967   234.13305885
 H     15  14  12     2.070374964568   108.51006559   314.18910897
 H     15  14  12     2.064572014899   107.96048118    72.48391994
 H     16  15  14     2.050209796325   109.12886782   182.82412615
 H     16  15  14     2.051910621403   109.88983893   303.12167033
 H     16  15  14     2.055237481146   109.75022422    63.14771965
 H     18  17  12     2.070107395159   108.58792882   330.31880992
 H     18  17  12     2.064564531369   107.67583773    88.61832476
 H     19  18  17     2.050325658205   109.08618667   182.81372656
 H     19  18  17     2.052526147818   109.88671262   302.77843022
 H     19  18  17     2.053439567790   110.21985720    62.89492807

---------------------
BASIS SET INFORMATION
---------------------
There are 5 groups of distinct atoms

 Group   1 Type C   : 7s4p1d contracted to 3s2p1d pattern {511/31/1}
 Group   2 Type O   : 7s4p1d contracted to 3s2p1d pattern {511/31/1}
 Group   3 Type P   : 10s7p1d contracted to 4s3p1d pattern {5311/511/1}
 Group   4 Type S   : 10s7p1d contracted to 4s3p1d pattern {5311/511/1}
 Group   5 Type H   : 4s contracted to 2s pattern {31}

Atom   0C    basis set group =>   1
Atom   1C    basis set group =>   1
Atom   2O    basis set group =>   2
Atom   3P    basis set group =>   3
Atom   4S    basis set group =>   4
Atom   5O    basis set group =>   2
Atom   6C    basis set group =>   1
Atom   7C    basis set group =>   1
Atom   8S    basis set group =>   4
Atom   9C    basis set group =>   1
Atom  10S    basis set group =>   4
Atom  11P    basis set group =>   3
Atom  12S    basis set group =>   4
Atom  13O    basis set group =>   2
Atom  14C    basis set group =>   1
Atom  15C    basis set group =>   1
Atom  16O    basis set group =>   2
Atom  17C    basis set group =>   1
Atom  18C    basis set group =>   1
Atom  19H    basis set group =>   5
Atom  20H    basis set group =>   5
Atom  21H    basis set group =>   5
Atom  22H    basis set group =>   5
Atom  23H    basis set group =>   5
Atom  24H    basis set group =>   5
Atom  25H    basis set group =>   5
Atom  26H    basis set group =>   5
Atom  27H    basis set group =>   5
Atom  28H    basis set group =>   5
Atom  29H    basis set group =>   5
Atom  30H    basis set group =>   5
Atom  31H    basis set group =>   5
Atom  32H    basis set group =>   5
Atom  33H    basis set group =>   5
Atom  34H    basis set group =>   5
Atom  35H    basis set group =>   5
Atom  36H    basis set group =>   5
Atom  37H    basis set group =>   5
Atom  38H    basis set group =>   5
Atom  39H    basis set group =>   5
Atom  40H    basis set group =>   5
---------------------------------
AUXILIARY/J BASIS SET INFORMATION
---------------------------------
There are 5 groups of distinct atoms

 Group   1 Type C   : 12s5p4d2f1g contracted to 6s4p3d1f1g pattern {711111/2111/211/2/1}
 Group   2 Type O   : 12s5p4d2f1g contracted to 6s4p3d1f1g pattern {711111/2111/211/2/1}
 Group   3 Type P   : 14s5p5d2f1g contracted to 8s4p3d1f1g pattern {71111111/2111/311/2/1}
 Group   4 Type S   : 14s5p5d2f1g contracted to 8s4p3d1f1g pattern {71111111/2111/311/2/1}
 Group   5 Type H   : 5s2p1d contracted to 3s1p1d pattern {311/2/1}

Atom   0C    basis set group =>   1
Atom   1C    basis set group =>   1
Atom   2O    basis set group =>   2
Atom   3P    basis set group =>   3
Atom   4S    basis set group =>   4
Atom   5O    basis set group =>   2
Atom   6C    basis set group =>   1
Atom   7C    basis set group =>   1
Atom   8S    basis set group =>   4
Atom   9C    basis set group =>   1
Atom  10S    basis set group =>   4
Atom  11P    basis set group =>   3
Atom  12S    basis set group =>   4
Atom  13O    basis set group =>   2
Atom  14C    basis set group =>   1
Atom  15C    basis set group =>   1
Atom  16O    basis set group =>   2
Atom  17C    basis set group =>   1
Atom  18C    basis set group =>   1
Atom  19H    basis set group =>   5
Atom  20H    basis set group =>   5
Atom  21H    basis set group =>   5
Atom  22H    basis set group =>   5
Atom  23H    basis set group =>   5
Atom  24H    basis set group =>   5
Atom  25H    basis set group =>   5
Atom  26H    basis set group =>   5
Atom  27H    basis set group =>   5
Atom  28H    basis set group =>   5
Atom  29H    basis set group =>   5
Atom  30H    basis set group =>   5
Atom  31H    basis set group =>   5
Atom  32H    basis set group =>   5
Atom  33H    basis set group =>   5
Atom  34H    basis set group =>   5
Atom  35H    basis set group =>   5
Atom  36H    basis set group =>   5
Atom  37H    basis set group =>   5
Atom  38H    basis set group =>   5
Atom  39H    basis set group =>   5
Atom  40H    basis set group =>   5
------------------------------------------------------------------------------
                             ORCA STARTUP CALCULATIONS
                           -- RI-GTO INTEGRALS CHOSEN --
------------------------------------------------------------------------------
------------------------------------------------------------------------------
                   ___                                                        
                  /   \      - P O W E R E D   B Y -                         
                 /     \                                                     
                 |  |  |   _    _      __       _____    __    __             
                 |  |  |  | |  | |    /  \     |  _  \  |  |  /  |          
                  \  \/   | |  | |   /    \    | | | |  |  | /  /          
                 / \  \   | |__| |  /  /\  \   | |_| |  |  |/  /          
                |  |  |   |  __  | /  /__\  \  |    /   |      \           
                |  |  |   | |  | | |   __   |  |    \   |  |\   \          
                \     /   | |  | | |  |  |  |  | |\  \  |  | \   \       
                 \___/    |_|  |_| |__|  |__|  |_| \__\ |__|  \__/        
                                                                              
                      - O R C A' S   B I G   F R I E N D -                    
                                      &                                       
                       - I N T E G R A L  F E E D E R -                       
                                                                              
 v1 FN, 2020, v2 2021, v3 2022-2024                                           
------------------------------------------------------------------------------


----------------------
SHARK INTEGRAL PACKAGE
----------------------

Number of atoms                             ...     41
Number of basis functions                   ...    334
Number of shells                            ...    170
Maximum angular momentum                    ...      2
Integral batch strategy                     ... SHARK/LIBINT Hybrid
RI-J (if used) integral strategy            ... SPLIT-RIJ (Revised 2003 algorithm where possible)
Printlevel                                  ...      1
Contraction scheme used                     ... SEGMENTED contraction
Prescreening option                         ... SCHWARTZ
   Thresh                                   ... 1.000e-09
   Tcut                                     ... 1.000e-10
   Tpresel                                  ... 1.000e-10 
Coulomb Range Separation                    ... NOT USED
Exchange Range Separation                   ... NOT USED
Multipole approximations                    ... NOT USED
Finite Nucleus Model                        ... NOT USED
CABS basis                                  ... NOT available
Auxiliary Coulomb fitting basis             ... AVAILABLE
   # of basis functions in Aux-J            ...   1185
   # of shells in Aux-J                     ...    407
   Maximum angular momentum in Aux-J        ...      4
Auxiliary J/K fitting basis                 ... NOT available
Auxiliary Correlation fitting basis         ... NOT available
Auxiliary 'external' fitting basis          ... NOT available

Checking pre-screening integrals            ... done (  0.0 sec) Dimension = 170
Check shell pair data                       ... done (  0.0 sec)
Shell pair information
Shell pair cut-off parameter TPreSel        ...   1.0e-10
Total number of shell pairs                 ...     14535
Shell pairs after pre-screening             ...     10159
Total number of primitive shell pairs       ...     62501
Primitive shell pairs kept                  ...     25153
          la=0 lb=0:   3911 shell pairs
          la=1 lb=0:   3462 shell pairs
          la=1 lb=1:    807 shell pairs
          la=2 lb=0:   1284 shell pairs
          la=2 lb=1:    587 shell pairs
          la=2 lb=2:    108 shell pairs

Calculating one electron integrals          ... done (  0.1 sec)
Calculating RI/J V-Matrix + Cholesky decomp.... done (  0.1 sec)
Calculating Nuclear repulsion               ... done (  0.0 sec) ENN=   2790.216418874421 Eh

Diagonalization of the overlap matrix:
Smallest eigenvalue                        ... 3.324e-03
Time for diagonalization                   ...    0.010 sec
Threshold for overlap eigenvalues          ... 1.000e-07
Number of eigenvalues below threshold      ... 0
Time for construction of square roots      ...    0.023 sec
Total time needed                          ...    0.042 sec

-------------------
DFT GRID GENERATION
-------------------

General Integration Accuracy     IntAcc      ... 4.159
Radial Grid Type                 RadialGrid  ... OptM3 with GC (2021)
Angular Grid (max. ang.)         AngularGrid ... 3 (Lebedev-194)
Angular grid pruning method      GridPruning ... 4 (adaptive)
Weight generation scheme         WeightScheme... mBecke (2022)
Basis function cutoff            BFCut       ... 1.0000e-10
Integration weight cutoff        WCut        ... 1.0000e-14
Partially contracted basis set               ... off
Rotationally invariant grid construction     ... off
Angular grids for H and He will be reduced by one unit

Total number of grid points                  ...    97530
Total number of batches                      ...     1545
Average number of points per batch           ...       63
Average number of grid points per atom       ...     2379
Initializing property integral containers    ... done (  0.0 sec)

SHARK setup successfully completed in   1.5 seconds

Maximum memory used throughout the entire STARTUP-calculation: 51.6 MB
-------------------------------------------------------------------------------
                                 ORCA GUESS
                   Start orbitals & Density for SCF / CASSCF
-------------------------------------------------------------------------------

------------
SCF SETTINGS
------------
Hamiltonian:
 Density Functional     Method          .... DFT(GTOs)
 Exchange Functional    Exchange        .... PBE
   PBE kappa parameter   XKappa         ....  0.804000
   PBE mue parameter    XMuePBE         ....  0.219520
 Correlation Functional Correlation     .... PBE
   PBE beta parameter  CBetaPBE         ....  0.066725
 LDA part of GGA corr.  LDAOpt          .... PW91-LDA
 Gradients option       PostSCFGGA      .... off
   NL short-range parameter             ....  6.400000
 RI-approximation to the Coulomb term is turned on
   Number of AuxJ basis functions       .... 1185


General Settings:
 Integral files         IntName         .... sp
 Hartree-Fock type      HFTyp           .... RHF
 Total Charge           Charge          ....    0
 Multiplicity           Mult            ....    1
 Number of Electrons    NEL             ....  202
 Basis Dimension        Dim             ....  334
 Nuclear Repulsion      ENuc            ....   2790.2164188744 Eh

Convergence Acceleration:
 AO-DIIS                CNVDIIS         .... on
   Start iteration      DIISMaxIt       ....    12
   Startup error        DIISStart       ....  0.200000
   # of expansion vecs  DIISMaxEq       ....     5
   Bias factor          DIISBfac        ....   1.050
   Max. coefficient     DIISMaxC        ....  10.000
 MO-DIIS                CNVKDIIS        .... off
 Trust-Rad. Augm. Hess. CNVTRAH         .... auto
   Auto Start mean grad. ratio tolernc. ....  1.125000
   Auto Start start iteration           ....    50
   Auto Start num. interpolation iter.  ....    10
   Max. Number of Micro iterations      ....    24
   Max. Number of Macro iterations      .... Maxiter - #DIIS iter
   Number of Davidson start vectors     ....     2
   Converg. threshold    (grad. norm)   ....   1.000e-04
   Grad. Scal. Fac. for Micro threshold ....   0.100
   Minimum threshold for Micro iter.    ....   1.000e-02
   NR start threshold (gradient norm)   ....   1.000e-04
   Initial trust radius                 ....   0.400
   Minimum AH scaling param. (alpha)    ....   1.000
   Maximum AH scaling param. (alpha)    .... 1000.000
   Quad. conv. algorithm                .... NR
   White noise on init. David. guess    .... on
   Maximum white noise                  ....   0.010
   Pseudo random numbers                .... off
   Inactive MOs                         .... canonical
   Orbital update algorithm             .... Taylor
   Preconditioner                       .... Diag
   Full preconditioner red. dimension   ....   250
 SOSCF                  CNVSOSCF        .... on
   Start iteration      SOSCFMaxIt      ....   150
   Startup grad/error   SOSCFStart      ....  0.003300
   Hessian update       SOSCFHessUp     .... L-BFGS
 Level Shifting         CNVShift        .... on
   Level shift para.    LevelShift      ....    0.2500
   Turn off err/grad.   ShiftErr        ....    0.0010
 Zerner damping         CNVZerner       .... off
 Static damping         CNVDamp         .... on
   Fraction old density DampFac         ....    0.7000
   Max. Damping (<1)    DampMax         ....    0.9800
   Min. Damping (>=0)   DampMin         ....    0.0000
   Turn off err/grad.   DampErr         ....    0.1000

SCF Procedure:
 Maximum # iterations   MaxIter         ....   125
 SCF integral mode      SCFMode         .... Direct
   Integral package                     .... SHARK and LIBINT hybrid scheme
 Reset frequency        DirectResetFreq ....    20
 Integral Threshold     Thresh          ....  1.000e-09 Eh
 Primitive CutOff       TCut            ....  1.000e-10 Eh

Convergence Tolerance:
 Convergence Check Mode ConvCheckMode   .... Total+1el-Energy
 Convergence forced     ConvForced      .... 0
 Energy Change          TolE            ....  1.000e-05 Eh
 1-El. energy change                    ....  1.000e-02 Eh
 Orbital Gradient       TolG            ....  1.000e-04
 Orbital Rotation angle TolX            ....  1.000e-04
 DIIS Error             TolErr          ....  5.000e-04

------------------------------
INITIAL GUESS: MODEL POTENTIAL
------------------------------
Loading Hartree-Fock densities                     ... done
Calculating cut-offs                               ... done
Initializing the effective Hamiltonian             ... done
Setting up the integral package (SHARK)            ... done
Starting the Coulomb interaction                   ... done (   0.6 sec)
Making the grid                                    ... done (   0.6 sec)
Mapping shells                                     ... done
Starting the XC term evaluation                    ... done (   0.4 sec)
  promolecular density results
     # of electrons  =    201.990365978
     EX              =   -229.997027928
     EC              =     -7.286207875
     EX+EC           =   -237.283235803
Transforming the Hamiltonian                       ... done (   0.0 sec)
Diagonalizing the Hamiltonian                      ... done (   0.0 sec)
Back transforming the eigenvectors                 ... done (   0.0 sec)
Now organizing SCF variables                       ... done
                      ------------------
                      INITIAL GUESS DONE (   1.6 sec)
                      ------------------
             **** ENERGY FILE WAS UPDATED (sp.en.tmp) ****
Finished Guess after   1.9 sec
Maximum memory used throughout the entire GUESS-calculation: 39.1 MB

-------------------------------------------------------------------------------------------
                                      ORCA LEAN-SCF
                              memory conserving SCF solver
-------------------------------------------------------------------------------------------

----------------------------------------D-I-I-S--------------------------------------------
Iteration    Energy (Eh)           Delta-E    RMSDP     MaxDP     DIISErr   Damp  Time(sec)
-------------------------------------------------------------------------------------------
               ***  Starting incremental Fock matrix formation  ***
    1    -2929.1837017490729522     0.00e+00  2.70e-03  1.39e-01  1.82e-01  0.700   2.3
    2    -2929.4097729327581874    -2.26e-01  1.75e-03  7.13e-02  7.45e-02  0.700   2.1
                               ***Turning on AO-DIIS***
    3    -2929.4811311477383242    -7.14e-02  6.98e-04  1.73e-02  2.18e-02  0.700   2.0
    4    -2929.5263186453544222    -4.52e-02  1.07e-03  3.46e-02  1.08e-02  0.000   1.9
    5    -2929.6318455380774139    -1.06e-01  3.14e-04  1.19e-02  8.27e-03  0.000   2.0
                              *** Initializing SOSCF ***
---------------------------------------S-O-S-C-F--------------------------------------
Iteration    Energy (Eh)           Delta-E    RMSDP     MaxDP     MaxGrad    Time(sec)
--------------------------------------------------------------------------------------
    6    -2929.6329439422902396    -1.10e-03  1.10e-04  3.46e-03  2.60e-03     1.9
               *** Restarting incremental Fock matrix formation ***
    7    -2929.6330736885106489    -1.30e-04  7.81e-05  1.88e-03  2.28e-04     2.2
    8    -2929.6330756852107697    -2.00e-06  3.29e-05  9.36e-04  2.32e-04     1.7
                 **** Energy Check signals convergence ****

               *****************************************************
               *                     SUCCESS                       *
               *           SCF CONVERGED AFTER   8 CYCLES          *
               *****************************************************

             **** ENERGY FILE WAS UPDATED (sp.en.tmp) ****

----------------
TOTAL SCF ENERGY
----------------

Total Energy       :      -2929.63307568521077 Eh          -79719.36884 eV

Components:
Nuclear Repulsion  :       2790.21641887442138 Eh           75925.64874 eV
Electronic Energy  :      -5719.84949455963215 Eh         -155645.01759 eV
One Electron Energy:      -9600.11457824850913 Eh         -261232.39847 eV
Two Electron Energy:       3880.26508368887653 Eh          105587.38089 eV

Virial components:
Potential Energy   :      -5848.92730738596583 Eh         -159157.40344 eV
Kinetic Energy     :       2919.29423170075461 Eh           79438.03460 eV
Virial Ratio       :          2.00354155599398

DFT components:
N(Alpha)           :      101.000454626242 electrons
N(Beta)            :      101.000454626242 electrons
N(Total)           :      202.000909252484 electrons
E(X)               :     -231.810539341879 Eh       
E(C)               :       -7.295777042112 Eh       
E(XC)              :     -239.106316383990 Eh       

---------------
SCF CONVERGENCE
---------------

  Last Energy change         ...    1.9967e-06  Tolerance :   1.0000e-05
  Last MAX-Density change    ...    9.3645e-04  Tolerance :   1.0000e-03
  Last RMS-Density change    ...    3.2924e-05  Tolerance :   1.0000e-04
  Last DIIS Error            ...    2.5968e-03  Tolerance :   5.0000e-04
  Last Orbital Gradient      ...    2.3212e-04  Tolerance :   1.0000e-04
  Last Orbital Rotation      ...    3.9942e-04  Tolerance :   1.0000e-04


----------------
ORBITAL ENERGIES
----------------

  NO   OCC          E(Eh)            E(eV) 
   0   2.0000     -88.037477     -2395.6215 
   1   2.0000     -88.036567     -2395.5968 
   2   2.0000     -87.983809     -2394.1612 
   3   2.0000     -87.973639     -2393.8844 
   4   2.0000     -76.424683     -2079.6214 
   5   2.0000     -76.415645     -2079.3754 
   6   2.0000     -18.787597      -511.2365 
   7   2.0000     -18.786744      -511.2133 
   8   2.0000     -18.783323      -511.1202 
   9   2.0000     -18.780209      -511.0355 
  10   2.0000      -9.954037      -270.8631 
  11   2.0000      -9.952465      -270.8203 
  12   2.0000      -9.952402      -270.8186 
  13   2.0000      -9.946138      -270.6482 
  14   2.0000      -9.940323      -270.4900 
  15   2.0000      -9.886320      -269.0204 
  16   2.0000      -9.886013      -269.0121 
  17   2.0000      -9.883676      -268.9485 
  18   2.0000      -9.875385      -268.7229 
  19   2.0000      -7.682507      -209.0516 
  20   2.0000      -7.682059      -209.0394 
  21   2.0000      -7.628787      -207.5899 
  22   2.0000      -7.618360      -207.3061 
  23   2.0000      -6.421657      -174.7422 
  24   2.0000      -6.413575      -174.5222 
  25   2.0000      -5.710350      -155.3865 
  26   2.0000      -5.710068      -155.3788 
  27   2.0000      -5.706978      -155.2948 
  28   2.0000      -5.706645      -155.2857 
  29   2.0000      -5.699400      -155.0885 
  30   2.0000      -5.698918      -155.0754 
  31   2.0000      -5.657680      -153.9533 
  32   2.0000      -5.649445      -153.7292 
  33   2.0000      -5.648843      -153.7128 
  34   2.0000      -5.647163      -153.6671 
  35   2.0000      -5.638907      -153.4425 
  36   2.0000      -5.638744      -153.4380 
  37   2.0000      -4.644584      -126.3856 
  38   2.0000      -4.643080      -126.3446 
  39   2.0000      -4.642219      -126.3212 
  40   2.0000      -4.636147      -126.1560 
  41   2.0000      -4.635375      -126.1350 
  42   2.0000      -4.633908      -126.0951 
  43   2.0000      -0.984578       -26.7917 
  44   2.0000      -0.977558       -26.6007 
  45   2.0000      -0.939477       -25.5645 
  46   2.0000      -0.936027       -25.4706 
  47   2.0000      -0.757208       -20.6047 
  48   2.0000      -0.717998       -19.5377 
  49   2.0000      -0.707183       -19.2434 
  50   2.0000      -0.689674       -18.7670 
  51   2.0000      -0.682212       -18.5639 
  52   2.0000      -0.672078       -18.2882 
  53   2.0000      -0.645446       -17.5635 
  54   2.0000      -0.627886       -17.0857 
  55   2.0000      -0.596965       -16.2442 
  56   2.0000      -0.581769       -15.8307 
  57   2.0000      -0.578595       -15.7444 
  58   2.0000      -0.562452       -15.3051 
  59   2.0000      -0.553265       -15.0551 
  60   2.0000      -0.500325       -13.6145 
  61   2.0000      -0.493612       -13.4319 
  62   2.0000      -0.473974       -12.8975 
  63   2.0000      -0.467301       -12.7159 
  64   2.0000      -0.449932       -12.2433 
  65   2.0000      -0.445191       -12.1143 
  66   2.0000      -0.437295       -11.8994 
  67   2.0000      -0.431104       -11.7309 
  68   2.0000      -0.424865       -11.5612 
  69   2.0000      -0.423531       -11.5249 
  70   2.0000      -0.402484       -10.9521 
  71   2.0000      -0.398575       -10.8458 
  72   2.0000      -0.386713       -10.5230 
  73   2.0000      -0.381837       -10.3903 
  74   2.0000      -0.374645       -10.1946 
  75   2.0000      -0.368170       -10.0184 
  76   2.0000      -0.361337        -9.8325 
  77   2.0000      -0.354761        -9.6535 
  78   2.0000      -0.351640        -9.5686 
  79   2.0000      -0.350999        -9.5512 
  80   2.0000      -0.344511        -9.3746 
  81   2.0000      -0.340745        -9.2721 
  82   2.0000      -0.336921        -9.1681 
  83   2.0000      -0.333074        -9.0634 
  84   2.0000      -0.325817        -8.8659 
  85   2.0000      -0.309971        -8.4347 
  86   2.0000      -0.307091        -8.3564 
  87   2.0000      -0.295137        -8.0311 
  88   2.0000      -0.292734        -7.9657 
  89   2.0000      -0.292007        -7.9459 
  90   2.0000      -0.282137        -7.6773 
  91   2.0000      -0.270065        -7.3488 
  92   2.0000      -0.263033        -7.1575 
  93   2.0000      -0.257863        -7.0168 
  94   2.0000      -0.253049        -6.8858 
  95   2.0000      -0.233632        -6.3574 
  96   2.0000      -0.219438        -5.9712 
  97   2.0000      -0.203808        -5.5459 
  98   2.0000      -0.200118        -5.4455 
  99   2.0000      -0.185963        -5.0603 
 100   2.0000      -0.182265        -4.9597 
 101   0.0000      -0.035380        -0.9627 
 102   0.0000      -0.031201        -0.8490 
 103   0.0000      -0.008610        -0.2343 
 104   0.0000       0.007041         0.1916 
 105   0.0000       0.014531         0.3954 
 106   0.0000       0.035012         0.9527 
 107   0.0000       0.039943         1.0869 
 108   0.0000       0.044364         1.2072 
 109   0.0000       0.051552         1.4028 
 110   0.0000       0.052976         1.4415 
 111   0.0000       0.055970         1.5230 
*Only the first 10 virtual orbitals were printed.

                    ********************************
                    * MULLIKEN POPULATION ANALYSIS *
                    ********************************

-----------------------
MULLIKEN ATOMIC CHARGES
-----------------------
   0 C :   -0.335117
   1 C :    0.007722
   2 O :   -0.350756
   3 P :    0.631365
   4 S :   -0.318939
   5 O :   -0.388584
   6 C :    0.005404
   7 C :   -0.320866
   8 S :   -0.100552
   9 C :   -0.360793
  10 S :   -0.088659
  11 P :    0.616707
  12 S :   -0.325670
  13 O :   -0.368694
  14 C :   -0.003029
  15 C :   -0.286880
  16 O :   -0.384122
  17 C :   -0.006707
  18 C :   -0.283612
  19 H :    0.126349
  20 H :    0.139777
  21 H :    0.115366
  22 H :    0.112249
  23 H :    0.108652
  24 H :    0.102147
  25 H :    0.110556
  26 H :    0.119188
  27 H :    0.112267
  28 H :    0.123759
  29 H :    0.201941
  30 H :    0.182350
  31 H :    0.115221
  32 H :    0.097319
  33 H :    0.106315
  34 H :    0.111317
  35 H :    0.130971
  36 H :    0.103312
  37 H :    0.099715
  38 H :    0.110004
  39 H :    0.115625
  40 H :    0.117382
Sum of atomic charges:    0.0000000

--------------------------------
MULLIKEN REDUCED ORBITAL CHARGES
--------------------------------
  0 C s       :     3.117531  s :     3.117531
      pz      :     1.075656  p :     3.189512
      px      :     1.093585
      py      :     1.020270
      dz2     :     0.003357  d :     0.028074
      dxz     :     0.006645
      dyz     :     0.006949
      dx2y2   :     0.007152
      dxy     :     0.003971

  1 C s       :     3.072184  s :     3.072184
      pz      :     0.915660  p :     2.860003
      px      :     0.892501
      py      :     1.051842
      dz2     :     0.009046  d :     0.060091
      dxz     :     0.015004
      dyz     :     0.013422
      dx2y2   :     0.012981
      dxy     :     0.009638

  2 O s       :     3.751526  s :     3.751526
      pz      :     1.316899  p :     4.586005
      px      :     1.576641
      py      :     1.692465
      dz2     :     0.003359  d :     0.013225
      dxz     :     0.002646
      dyz     :     0.003244
      dx2y2   :     0.002008
      dxy     :     0.001968

  3 P s       :     5.197183  s :     5.197183
      pz      :     2.842249  p :     8.587753
      px      :     2.829203
      py      :     2.916301
      dz2     :     0.144339  d :     0.583700
      dxz     :     0.111252
      dyz     :     0.099197
      dx2y2   :     0.125842
      dxy     :     0.103071

  4 S s       :     5.913234  s :     5.913234
      pz      :     3.451717  p :    10.362495
      px      :     3.519876
      py      :     3.390903
      dz2     :     0.005647  d :     0.043209
      dxz     :     0.009843
      dyz     :     0.010830
      dx2y2   :     0.006768
      dxy     :     0.010121

  5 O s       :     3.755082  s :     3.755082
      pz      :     1.411272  p :     4.620883
      px      :     1.422021
      py      :     1.787591
      dz2     :     0.004019  d :     0.012619
      dxz     :     0.002358
      dyz     :     0.001587
      dx2y2   :     0.002838
      dxy     :     0.001816

  6 C s       :     3.072491  s :     3.072491
      pz      :     0.746846  p :     2.861397
      px      :     1.042744
      py      :     1.071808
      dz2     :     0.019113  d :     0.060708
      dxz     :     0.010242
      dyz     :     0.015369
      dx2y2   :     0.010916
      dxy     :     0.005068

  7 C s       :     3.103890  s :     3.103890
      pz      :     1.058644  p :     3.188838
      px      :     1.090455
      py      :     1.039739
      dz2     :     0.005374  d :     0.028137
      dxz     :     0.004544
      dyz     :     0.005885
      dx2y2   :     0.009094
      dxy     :     0.003240

  8 S s       :     5.880430  s :     5.880430
      pz      :     3.511836  p :    10.146126
      px      :     3.359679
      py      :     3.274611
      dz2     :     0.012477  d :     0.073996
      dxz     :     0.019573
      dyz     :     0.008996
      dx2y2   :     0.020884
      dxy     :     0.012066

  9 C s       :     3.222496  s :     3.222496
      pz      :     1.036960  p :     3.098748
      px      :     0.896622
      py      :     1.165166
      dz2     :     0.005303  d :     0.039549
      dxz     :     0.009646
      dyz     :     0.008815
      dx2y2   :     0.011627
      dxy     :     0.004158

 10 S s       :     5.868542  s :     5.868542
      pz      :     3.597738  p :    10.145519
      px      :     3.190177
      py      :     3.357604
      dz2     :     0.007618  d :     0.074598
      dxz     :     0.012698
      dyz     :     0.015338
      dx2y2   :     0.023227
      dxy     :     0.015718

 11 P s       :     5.205199  s :     5.205199
      pz      :     2.854293  p :     8.586283
      px      :     2.837521
      py      :     2.894470
      dz2     :     0.107717  d :     0.591810
      dxz     :     0.128828
      dyz     :     0.135460
      dx2y2   :     0.116056
      dxy     :     0.103750

 12 S s       :     5.921451  s :     5.921451
      pz      :     3.333927  p :    10.360324
      px      :     3.462989
      py      :     3.563408
      dz2     :     0.008387  d :     0.043895
      dxz     :     0.014628
      dyz     :     0.008202
      dx2y2   :     0.005835
      dxy     :     0.006842

 13 O s       :     3.761134  s :     3.761134
      pz      :     1.554933  p :     4.594343
      px      :     1.747769
      py      :     1.291640
      dz2     :     0.003271  d :     0.013217
      dxz     :     0.001925
      dyz     :     0.004048
      dx2y2   :     0.002227
      dxy     :     0.001747

 14 C s       :     3.067534  s :     3.067534
      pz      :     1.095014  p :     2.875812
      px      :     1.064035
      py      :     0.716762
      dz2     :     0.009114  d :     0.059684
      dxz     :     0.010289
      dyz     :     0.011839
      dx2y2   :     0.017506
      dxy     :     0.010936

 15 C s       :     3.090834  s :     3.090834
      pz      :     1.022185  p :     3.168234
      px      :     1.103061
      py      :     1.042988
      dz2     :     0.005850  d :     0.027812
      dxz     :     0.007984
      dyz     :     0.004037
      dx2y2   :     0.007212
      dxy     :     0.002729

 16 O s       :     3.763395  s :     3.763395
      pz      :     1.442611  p :     4.607907
      px      :     1.473946
      py      :     1.691351
      dz2     :     0.003131  d :     0.012820
      dxz     :     0.002584
      dyz     :     0.002110
      dx2y2   :     0.002989
      dxy     :     0.002004

 17 C s       :     3.070347  s :     3.070347
      pz      :     0.796970  p :     2.876633
      px      :     1.068240
      py      :     1.011423
      dz2     :     0.015504  d :     0.059727
      dxz     :     0.014788
      dyz     :     0.011605
      dx2y2   :     0.012895
      dxy     :     0.004935

 18 C s       :     3.092961  s :     3.092961
      pz      :     1.057061  p :     3.162781
      px      :     1.030747
      py      :     1.074973
      dz2     :     0.004669  d :     0.027870
      dxz     :     0.006909
      dyz     :     0.004276
      dx2y2   :     0.008906
      dxy     :     0.003109

 19 H s       :     0.873651  s :     0.873651

 20 H s       :     0.860223  s :     0.860223

 21 H s       :     0.884634  s :     0.884634

 22 H s       :     0.887751  s :     0.887751

 23 H s       :     0.891348  s :     0.891348

 24 H s       :     0.897853  s :     0.897853

 25 H s       :     0.889444  s :     0.889444

 26 H s       :     0.880812  s :     0.880812

 27 H s       :     0.887733  s :     0.887733

 28 H s       :     0.876241  s :     0.876241

 29 H s       :     0.798059  s :     0.798059

 30 H s       :     0.817650  s :     0.817650

 31 H s       :     0.884779  s :     0.884779

 32 H s       :     0.902681  s :     0.902681

 33 H s       :     0.893685  s :     0.893685

 34 H s       :     0.888683  s :     0.888683

 35 H s       :     0.869029  s :     0.869029

 36 H s       :     0.896688  s :     0.896688

 37 H s       :     0.900285  s :     0.900285

 38 H s       :     0.889996  s :     0.889996

 39 H s       :     0.884375  s :     0.884375

 40 H s       :     0.882618  s :     0.882618


------------------------
MULLIKEN OVERLAP CHARGES
------------------------
B(  0-C ,  1-C ) :   0.9162 B(  0-C ,  2-O ) :  -0.0942 B(  0-C , 19-H ) :   0.7201 
B(  0-C , 20-H ) :   0.7369 B(  0-C , 21-H ) :   0.6835 B(  0-C , 23-H ) :  -0.0665 
B(  1-C ,  2-O ) :   0.5512 B(  1-C ,  3-P ) :  -0.0664 B(  1-C , 22-H ) :   0.7301 
B(  1-C , 23-H ) :   0.7344 B(  2-O ,  3-P ) :   0.6656 B(  2-O ,  4-S ) :  -0.0578 
B(  2-O ,  5-O ) :  -0.0687 B(  2-O ,  8-S ) :  -0.0624 B(  2-O , 22-H ) :  -0.0565 
B(  2-O , 23-H ) :  -0.0585 B(  3-P ,  4-S ) :   0.9210 B(  3-P ,  5-O ) :   0.5899 
B(  3-P ,  6-C ) :  -0.0914 B(  3-P ,  8-S ) :   0.5278 B(  3-P ,  9-C ) :  -0.0564 
B(  4-S ,  5-O ) :  -0.0697 B(  4-S ,  8-S ) :  -0.0883 B(  4-S ,  9-C ) :  -0.0618 
B(  4-S , 25-H ) :   0.0617 B(  4-S , 29-H ) :   0.1257 B(  5-O ,  6-C ) :   0.5852 
B(  5-O ,  7-C ) :  -0.0992 B(  5-O ,  8-S ) :  -0.0750 B(  5-O , 24-H ) :  -0.0600 
B(  5-O , 25-H ) :  -0.0693 B(  6-C ,  7-C ) :   0.9164 B(  6-C , 24-H ) :   0.7286 
B(  6-C , 25-H ) :   0.7256 B(  7-C , 24-H ) :  -0.0539 B(  7-C , 25-H ) :  -0.0718 
B(  7-C , 26-H ) :   0.7284 B(  7-C , 27-H ) :   0.6873 B(  7-C , 28-H ) :   0.7302 
B(  8-S ,  9-C ) :   0.4784 B(  8-S , 10-S ) :  -0.1469 B(  8-S , 29-H ) :  -0.0563 
B(  8-S , 30-H ) :  -0.0574 B(  9-C , 10-S ) :   0.4549 B(  9-C , 29-H ) :   0.6063 
B(  9-C , 30-H ) :   0.7161 B( 10-S , 11-P ) :   0.5291 B( 10-S , 12-S ) :  -0.0757 
B( 10-S , 13-O ) :  -0.0771 B( 10-S , 16-O ) :  -0.0637 B( 10-S , 30-H ) :  -0.0719 
B( 11-P , 12-S ) :   0.9790 B( 11-P , 13-O ) :   0.6328 B( 11-P , 14-C ) :  -0.0725 
B( 11-P , 16-O ) :   0.6231 B( 11-P , 17-C ) :  -0.0851 B( 12-S , 13-O ) :  -0.0641 
B( 12-S , 16-O ) :  -0.0811 B( 12-S , 31-H ) :   0.0593 B( 12-S , 36-H ) :   0.0904 
B( 13-O , 14-C ) :   0.5381 B( 13-O , 15-C ) :  -0.1115 B( 13-O , 16-O ) :  -0.0585 
B( 13-O , 31-H ) :  -0.0649 B( 13-O , 32-H ) :  -0.0640 B( 14-C , 15-C ) :   0.8758 
B( 14-C , 31-H ) :   0.7065 B( 14-C , 32-H ) :   0.7283 B( 15-C , 32-H ) :  -0.0563 
B( 15-C , 33-H ) :   0.6990 B( 15-C , 34-H ) :   0.7318 B( 15-C , 35-H ) :   0.7557 
B( 16-O , 17-C ) :   0.5590 B( 16-O , 18-C ) :  -0.1163 B( 16-O , 36-H ) :  -0.0731 
B( 16-O , 37-H ) :  -0.0641 B( 17-C , 18-C ) :   0.8621 B( 17-C , 36-H ) :   0.6757 
B( 17-C , 37-H ) :   0.7342 B( 18-C , 37-H ) :  -0.0603 B( 18-C , 38-H ) :   0.6953 
B( 18-C , 39-H ) :   0.7426 B( 18-C , 40-H ) :   0.7341 B( 19-H , 20-H ) :  -0.0583 
B( 22-H , 23-H ) :  -0.0710 B( 24-H , 25-H ) :  -0.0652 B( 26-H , 28-H ) :  -0.0546 
B( 31-H , 32-H ) :  -0.0789 B( 36-H , 37-H ) :  -0.0714 B( 39-H , 40-H ) :  -0.0549 



                     *******************************
                     * LOEWDIN POPULATION ANALYSIS *
                     *******************************

----------------------
LOEWDIN ATOMIC CHARGES
----------------------
   0 C :   -0.371440
   1 C :   -0.106756
   2 O :   -0.225213
   3 P :    0.580146
   4 S :   -0.294466
   5 O :   -0.254856
   6 C :   -0.116482
   7 C :   -0.370018
   8 S :    0.078296
   9 C :   -0.484700
  10 S :    0.078157
  11 P :    0.560082
  12 S :   -0.317745
  13 O :   -0.240344
  14 C :   -0.116791
  15 C :   -0.352554
  16 O :   -0.252562
  17 C :   -0.121218
  18 C :   -0.351783
  19 H :    0.116149
  20 H :    0.133535
  21 H :    0.132531
  22 H :    0.124175
  23 H :    0.113511
  24 H :    0.117515
  25 H :    0.110806
  26 H :    0.124382
  27 H :    0.130460
  28 H :    0.120027
  29 H :    0.123276
  30 H :    0.135750
  31 H :    0.111616
  32 H :    0.109230
  33 H :    0.128771
  34 H :    0.124800
  35 H :    0.124342
  36 H :    0.105323
  37 H :    0.110744
  38 H :    0.129854
  39 H :    0.126071
  40 H :    0.127378

-------------------------------
LOEWDIN REDUCED ORBITAL CHARGES
-------------------------------
  0 C s       :     2.953958  s :     2.953958
      pz      :     1.128751  p :     3.348249
      px      :     1.141162
      py      :     1.078336
      dz2     :     0.008486  d :     0.069233
      dxz     :     0.015968
      dyz     :     0.016937
      dx2y2   :     0.019281
      dxy     :     0.008560

  1 C s       :     2.926323  s :     2.926323
      pz      :     0.982398  p :     3.046822
      px      :     0.966433
      py      :     1.097991
      dz2     :     0.019188  d :     0.133611
      dxz     :     0.032548
      dyz     :     0.029813
      dx2y2   :     0.033156
      dxy     :     0.018906

  2 O s       :     3.493130  s :     3.493130
      pz      :     1.401184  p :     4.708227
      px      :     1.602833
      py      :     1.704210
      dz2     :     0.006944  d :     0.023856
      dxz     :     0.005058
      dyz     :     0.006154
      dx2y2   :     0.002980
      dxy     :     0.002720

  3 P s       :     5.057163  s :     5.057163
      pz      :     2.814275  p :     8.553498
      px      :     2.823063
      py      :     2.916160
      dz2     :     0.204640  d :     0.809193
      dxz     :     0.145775
      dyz     :     0.136643
      dx2y2   :     0.184066
      dxy     :     0.138070

  4 S s       :     5.754984  s :     5.754984
      pz      :     3.493678  p :    10.481474
      px      :     3.536081
      py      :     3.451715
      dz2     :     0.006050  d :     0.058008
      dxz     :     0.013911
      dyz     :     0.016025
      dx2y2   :     0.007301
      dxy     :     0.014721

  5 O s       :     3.496252  s :     3.496252
      pz      :     1.452949  p :     4.735127
      px      :     1.500962
      py      :     1.781216
      dz2     :     0.008131  d :     0.023477
      dxz     :     0.004535
      dyz     :     0.002660
      dx2y2   :     0.005619
      dxy     :     0.002531

  6 C s       :     2.925777  s :     2.925777
      pz      :     0.842581  p :     3.054696
      px      :     1.093368
      py      :     1.118747
      dz2     :     0.041600  d :     0.136010
      dxz     :     0.021076
      dyz     :     0.036706
      dx2y2   :     0.026194
      dxy     :     0.010434

  7 C s       :     2.953211  s :     2.953211
      pz      :     1.116981  p :     3.347408
      px      :     1.134295
      py      :     1.096133
      dz2     :     0.012776  d :     0.069398
      dxz     :     0.010600
      dyz     :     0.016047
      dx2y2   :     0.022607
      dxy     :     0.007369

  8 S s       :     5.646166  s :     5.646166
      pz      :     3.514527  p :    10.181874
      px      :     3.376807
      py      :     3.290539
      dz2     :     0.015185  d :     0.093664
      dxz     :     0.026150
      dyz     :     0.010028
      dx2y2   :     0.027091
      dxy     :     0.015210

  9 C s       :     3.064849  s :     3.064849
      pz      :     1.102519  p :     3.332647
      px      :     1.024895
      py      :     1.205233
      dz2     :     0.010434  d :     0.087205
      dxz     :     0.022125
      dyz     :     0.020381
      dx2y2   :     0.026136
      dxy     :     0.008128

 10 S s       :     5.634670  s :     5.634670
      pz      :     3.586519  p :    10.192612
      px      :     3.227647
      py      :     3.378446
      dz2     :     0.009539  d :     0.094561
      dxz     :     0.016317
      dyz     :     0.019785
      dx2y2   :     0.030269
      dxy     :     0.018652

 11 P s       :     5.055347  s :     5.055347
      pz      :     2.846061  p :     8.559648
      px      :     2.838520
      py      :     2.875068
      dz2     :     0.144263  d :     0.824923
      dxz     :     0.178990
      dyz     :     0.198225
      dx2y2   :     0.164541
      dxy     :     0.138904

 12 S s       :     5.773149  s :     5.773149
      pz      :     3.395751  p :    10.485950
      px      :     3.494419
      py      :     3.595781
      dz2     :     0.009914  d :     0.058646
      dxz     :     0.021490
      dyz     :     0.011357
      dx2y2   :     0.006880
      dxy     :     0.009005

 13 O s       :     3.502832  s :     3.502832
      pz      :     1.606388  p :     4.713504
      px      :     1.749126
      py      :     1.357990
      dz2     :     0.005564  d :     0.024008
      dxz     :     0.002448
      dyz     :     0.008027
      dx2y2   :     0.004685
      dxy     :     0.003284

 14 C s       :     2.929912  s :     2.929912
      pz      :     1.123274  p :     3.054430
      px      :     1.123525
      py      :     0.807631
      dz2     :     0.021895  d :     0.132448
      dxz     :     0.022239
      dyz     :     0.026922
      dx2y2   :     0.038358
      dxy     :     0.023034

 15 C s       :     2.949785  s :     2.949785
      pz      :     1.082842  p :     3.333720
      px      :     1.141363
      py      :     1.109515
      dz2     :     0.015868  d :     0.069049
      dxz     :     0.017946
      dyz     :     0.011215
      dx2y2   :     0.017745
      dxy     :     0.006275

 16 O s       :     3.503570  s :     3.503570
      pz      :     1.489191  p :     4.725525
      px      :     1.537951
      py      :     1.698383
      dz2     :     0.006219  d :     0.023467
      dxz     :     0.004678
      dyz     :     0.003916
      dx2y2   :     0.005763
      dxy     :     0.002891

 17 C s       :     2.930491  s :     2.930491
      pz      :     0.880287  p :     3.057251
      px      :     1.111879
      py      :     1.065085
      dz2     :     0.033917  d :     0.133476
      dxz     :     0.033568
      dyz     :     0.024879
      dx2y2   :     0.030946
      dxy     :     0.010167

 18 C s       :     2.951487  s :     2.951487
      pz      :     1.117634  p :     3.331159
      px      :     1.086706
      py      :     1.126818
      dz2     :     0.011556  d :     0.069138
      dxz     :     0.017794
      dyz     :     0.010045
      dx2y2   :     0.021966
      dxy     :     0.007778

 19 H s       :     0.883851  s :     0.883851

 20 H s       :     0.866465  s :     0.866465

 21 H s       :     0.867469  s :     0.867469

 22 H s       :     0.875825  s :     0.875825

 23 H s       :     0.886489  s :     0.886489

 24 H s       :     0.882485  s :     0.882485

 25 H s       :     0.889194  s :     0.889194

 26 H s       :     0.875618  s :     0.875618

 27 H s       :     0.869540  s :     0.869540

 28 H s       :     0.879973  s :     0.879973

 29 H s       :     0.876724  s :     0.876724

 30 H s       :     0.864250  s :     0.864250

 31 H s       :     0.888384  s :     0.888384

 32 H s       :     0.890770  s :     0.890770

 33 H s       :     0.871229  s :     0.871229

 34 H s       :     0.875200  s :     0.875200

 35 H s       :     0.875658  s :     0.875658

 36 H s       :     0.894677  s :     0.894677

 37 H s       :     0.889256  s :     0.889256

 38 H s       :     0.870146  s :     0.870146

 39 H s       :     0.873929  s :     0.873929

 40 H s       :     0.872622  s :     0.872622


---------------------------------
LOEWDIN BOND ORDERS (THRESH 0.050000)
---------------------------------
B(  0-C ,  1-C ) :   1.1599 B(  0-C ,  2-O ) :   0.0580 B(  0-C , 19-H ) :   0.9272 
B(  0-C , 20-H ) :   0.9319 B(  0-C , 21-H ) :   0.9232 B(  1-C ,  2-O ) :   1.0774 
B(  1-C ,  3-P ) :   0.0609 B(  1-C , 22-H ) :   0.9165 B(  1-C , 23-H ) :   0.9156 
B(  2-O ,  3-P ) :   1.3142 B(  2-O ,  4-S ) :   0.0633 B(  2-O ,  5-O ) :   0.0554 
B(  2-O ,  8-S ) :   0.0626 B(  3-P ,  4-S ) :   1.7125 B(  3-P ,  5-O ) :   1.2386 
B(  3-P ,  6-C ) :   0.0624 B(  3-P ,  8-S ) :   1.0367 B(  4-S ,  5-O ) :   0.0868 
B(  4-S ,  8-S ) :   0.1336 B(  4-S , 29-H ) :   0.0810 B(  5-O ,  6-C ) :   1.0974 
B(  5-O ,  7-C ) :   0.0584 B(  5-O ,  8-S ) :   0.0629 B(  6-C ,  7-C ) :   1.1556 
B(  6-C , 24-H ) :   0.9171 B(  6-C , 25-H ) :   0.9076 B(  7-C , 26-H ) :   0.9344 
B(  7-C , 27-H ) :   0.9247 B(  7-C , 28-H ) :   0.9300 B(  8-S ,  9-C ) :   1.1682 
B(  8-S , 10-S ) :   0.0970 B(  9-C , 10-S ) :   1.1650 B(  9-C , 29-H ) :   0.8897 
B(  9-C , 30-H ) :   0.9247 B( 10-S , 11-P ) :   1.0907 B( 10-S , 12-S ) :   0.1256 
B( 10-S , 13-O ) :   0.0513 B( 10-S , 16-O ) :   0.0595 B( 11-P , 12-S ) :   1.7278 
B( 11-P , 13-O ) :   1.2998 B( 11-P , 14-C ) :   0.0665 B( 11-P , 16-O ) :   1.2669 
B( 11-P , 17-C ) :   0.0656 B( 12-S , 13-O ) :   0.0930 B( 12-S , 16-O ) :   0.0938 
B( 12-S , 36-H ) :   0.0500 B( 13-O , 14-C ) :   1.0687 B( 13-O , 15-C ) :   0.0578 
B( 13-O , 16-O ) :   0.0500 B( 14-C , 15-C ) :   1.1562 B( 14-C , 31-H ) :   0.9059 
B( 14-C , 32-H ) :   0.9186 B( 15-C , 33-H ) :   0.9286 B( 15-C , 34-H ) :   0.9364 
B( 15-C , 35-H ) :   0.9316 B( 16-O , 17-C ) :   1.0834 B( 16-O , 18-C ) :   0.0593 
B( 17-C , 18-C ) :   1.1558 B( 17-C , 36-H ) :   0.9008 B( 17-C , 37-H ) :   0.9185 
B( 18-C , 38-H ) :   0.9293 B( 18-C , 39-H ) :   0.9374 B( 18-C , 40-H ) :   0.9372 


------------------------------------------
LOEWDIN REDUCED ORBITAL POPULATIONS PER MO
-------------------------------------------
THRESHOLD FOR PRINTING IS 0.1%%
                      0         1         2         3         4         5   
                 -88.03748 -88.03657 -87.98381 -87.97364 -76.42468 -76.41564
                   2.00000   2.00000   2.00000   2.00000   2.00000   2.00000
                  --------  --------  --------  --------  --------  --------
 3 P  s               0.0       0.0       0.0       0.0     100.0       0.0
 4 S  s               0.0       0.0     100.0       0.0       0.0       0.0
 8 S  s              99.9       0.1       0.0       0.0       0.0       0.0
10 S  s               0.1      99.9       0.0       0.0       0.0       0.0
11 P  s               0.0       0.0       0.0       0.0       0.0     100.0
12 S  s               0.0       0.0       0.0     100.0       0.0       0.0

                      6         7         8         9        10        11   
                 -18.78760 -18.78674 -18.78332 -18.78021  -9.95404  -9.95247
                   2.00000   2.00000   2.00000   2.00000   2.00000   2.00000
                  --------  --------  --------  --------  --------  --------
 0 C  py              0.0       0.0       0.0       0.0       0.1       0.0
 1 C  s               0.0       0.0       0.0       0.0      99.7       0.0
 2 O  s               0.2      99.7       0.0       0.0       0.0       0.0
 5 O  s              99.7       0.2       0.0       0.0       0.0       0.0
 6 C  s               0.0       0.0       0.0       0.0       0.0       4.0
 9 C  s               0.0       0.0       0.0       0.0       0.0      95.8
13 O  s               0.0       0.0       0.0      99.9       0.0       0.0
16 O  s               0.0       0.0      99.9       0.0       0.0       0.0

                     12        13        14        15        16        17   
                  -9.95240  -9.94614  -9.94032  -9.88632  -9.88601  -9.88368
                   2.00000   2.00000   2.00000   2.00000   2.00000   2.00000
                  --------  --------  --------  --------  --------  --------
 0 C  s               0.0       0.0       0.0      99.7       0.0       0.0
 1 C  py              0.0       0.0       0.0       0.1       0.0       0.0
 6 C  s              95.7       0.0       0.0       0.0       0.0       0.0
 7 C  s               0.0       0.0       0.0       0.0      99.7       0.0
 9 C  s               4.0       0.0       0.0       0.0       0.0       0.0
14 C  s               0.0       0.0      99.7       0.0       0.0       0.0
17 C  s               0.0      99.7       0.0       0.0       0.0       0.0
18 C  s               0.0       0.0       0.0       0.0       0.0      99.7

                     18        19        20        21        22        23   
                  -9.87538  -7.68251  -7.68206  -7.62879  -7.61836  -6.42166
                   2.00000   2.00000   2.00000   2.00000   2.00000   2.00000
                  --------  --------  --------  --------  --------  --------
 2 O  pz              0.0       0.0       0.0       0.0       0.0       0.2
 3 P  s               0.0       0.0       0.0       0.0       0.0      99.3
 4 S  s               0.0       0.0       0.0      99.9       0.0       0.0
 5 O  px              0.0       0.0       0.0       0.0       0.0       0.2
 8 S  s               0.0       0.2      99.5       0.0       0.0       0.0
 9 C  px              0.0       0.1       0.1       0.0       0.0       0.0
10 S  s               0.0      99.5       0.2       0.0       0.0       0.0
12 S  s               0.0       0.0       0.0       0.0      99.9       0.0
15 C  s              99.7       0.0       0.0       0.0       0.0       0.0

                     24        25        26        27        28        29   
                  -6.41357  -5.71035  -5.71007  -5.70698  -5.70665  -5.69940
                   2.00000   2.00000   2.00000   2.00000   2.00000   2.00000
                  --------  --------  --------  --------  --------  --------
 8 S  pz              0.0       0.0      14.9       0.0      33.0       0.0
 8 S  px              0.0       0.0      42.8       0.0      14.5       0.0
 8 S  py              0.0       0.0      42.2       0.0      52.5       0.0
10 S  pz              0.0      29.5       0.0       0.6       0.0      69.9
10 S  px              0.0      53.2       0.0      28.8       0.0      18.0
10 S  py              0.0      17.3       0.0      70.6       0.0      12.1
11 P  s              99.3       0.0       0.0       0.0       0.0       0.0
13 O  pz              0.2       0.0       0.0       0.0       0.0       0.0
16 O  px              0.2       0.0       0.0       0.0       0.0       0.0

                     30        31        32        33        34        35   
                  -5.69892  -5.65768  -5.64945  -5.64884  -5.64716  -5.63891
                   2.00000   2.00000   2.00000   2.00000   2.00000   2.00000
                  --------  --------  --------  --------  --------  --------
 4 S  pz              0.0      32.9      36.9      30.2       0.0       0.0
 4 S  px              0.0      23.4       8.4      68.1       0.0       0.0
 4 S  py              0.0      43.6      54.7       1.6       0.0       0.0
 8 S  pz             52.1       0.0       0.0       0.0       0.0       0.0
 8 S  px             42.7       0.0       0.0       0.0       0.0       0.0
 8 S  py              5.3       0.0       0.0       0.0       0.0       0.0
12 S  pz              0.0       0.0       0.0       0.0      53.5      11.9
12 S  px              0.0       0.0       0.0       0.0      29.0      67.5
12 S  py              0.0       0.0       0.0       0.0      17.5      20.6

                     36        37        38        39        40        41   
                  -5.63874  -4.64458  -4.64308  -4.64222  -4.63615  -4.63538
                   2.00000   2.00000   2.00000   2.00000   2.00000   2.00000
                  --------  --------  --------  --------  --------  --------
 3 P  pz              0.0      50.5      15.4      34.1       0.0       0.0
 3 P  px              0.0      35.5      60.3       4.2       0.0       0.0
 3 P  py              0.0      13.9      24.3      61.7       0.0       0.0
11 P  pz              0.0       0.0       0.0       0.0      49.4       3.8
11 P  px              0.0       0.0       0.0       0.0      34.4      49.2
11 P  py              0.0       0.0       0.0       0.0      16.1      47.0
12 S  pz             34.6       0.0       0.0       0.0       0.0       0.0
12 S  px              3.5       0.0       0.0       0.0       0.0       0.0
12 S  py             61.9       0.0       0.0       0.0       0.0       0.0

                     42        43        44        45        46        47   
                  -4.63391  -0.98458  -0.97756  -0.93948  -0.93603  -0.75721
                   2.00000   2.00000   2.00000   2.00000   2.00000   2.00000
                  --------  --------  --------  --------  --------  --------
 0 C  s               0.0       0.2       0.0       0.3       0.0       0.1
 0 C  pz              0.0       0.1       0.0       0.1       0.0       0.0
 0 C  py              0.0       0.3       0.0       0.4       0.0       0.1
 1 C  s               0.0       3.5       0.0       4.2       0.0       0.4
 1 C  pz              0.0       2.2       0.0       1.4       0.0       0.0
 1 C  px              0.0       1.7       0.0       2.0       0.0       0.0
 1 C  py              0.0       0.1       0.0       0.1       0.0       0.0
 1 C  dxz             0.0       0.2       0.0       0.3       0.0       0.0
 2 O  s               0.0      29.0       0.0      29.9       0.0       0.1
 2 O  pz              0.0       0.7       0.0       0.0       0.0       0.4
 2 O  px              0.0       0.5       0.0       0.4       0.0       0.1
 2 O  py              0.0       0.7       0.0       0.4       0.0       0.0
 3 P  s               0.0      13.9       0.0       0.0       0.0       2.5
 3 P  pz              0.0       1.5       0.0       6.9       0.0       0.1
 3 P  px              0.0       3.5       0.0       2.9       0.0       0.7
 3 P  py              0.0       0.2       0.0       0.7       0.0       1.1
 3 P  dz2             0.0       0.2       0.0       1.6       0.0       0.0
 3 P  dxz             0.0       0.1       0.0       0.6       0.0       0.0
 3 P  dyz             0.0       0.3       0.0       0.3       0.0       0.0
 3 P  dx2y2           0.0       0.4       0.0       0.9       0.0       0.1
 4 S  s               0.0       0.3       0.0       0.0       0.0       0.7
 4 S  pz              0.0       0.2       0.0       0.0       0.0       0.1
 4 S  px              0.0       0.1       0.0       0.0       0.0       0.0
 4 S  py              0.0       0.1       0.0       0.0       0.0       0.1
 5 O  s               0.0      27.8       0.0      31.4       0.0       0.2
 5 O  pz              0.0       0.1       0.0       1.2       0.0       0.1
 5 O  px              0.0       1.3       0.0       0.2       0.0       0.3
 6 C  s               0.0       3.2       0.0       5.2       0.0       0.3
 6 C  pz              0.0       3.0       0.0       3.8       0.0       0.0
 6 C  px              0.0       0.5       0.0       0.5       0.0       0.0
 6 C  dz2             0.0       0.2       0.0       0.3       0.0       0.0
 6 C  dxz             0.0       0.1       0.0       0.1       0.0       0.0
 7 C  s               0.0       0.2       0.0       0.4       0.0       0.0
 7 C  pz              0.0       0.2       0.0       0.3       0.0       0.0
 7 C  py              0.0       0.2       0.0       0.3       0.0       0.0
 8 S  s               0.0       0.3       0.0       0.0       0.0      17.7
 8 S  pz              0.0       0.0       0.0       0.0       0.0       1.2
 8 S  px              0.0       0.0       0.0       0.0       0.0       1.2
 8 S  py              0.0       0.3       0.0       0.0       0.0       0.3
 8 S  dxz             0.0       0.0       0.0       0.0       0.0       0.2
 9 C  s               0.0       0.0       0.0       0.0       0.0      26.5
 9 C  pz              0.0       0.0       0.0       0.0       0.0       2.1
10 S  s               0.0       0.0       0.4       0.0       0.0      19.2
10 S  px              0.0       0.0       0.0       0.0       0.0       1.9
10 S  py              0.0       0.0       0.4       0.0       0.0       0.8
10 S  dxz             0.0       0.0       0.0       0.0       0.0       0.1
11 P  s               0.0       0.0      14.3       0.0       0.0       2.7
11 P  pz             46.8       0.0       0.6       0.0       5.9       0.2
11 P  px             16.3       0.0       3.9       0.0       2.2       0.7
11 P  py             36.9       0.0       0.4       0.0       2.9       1.4
11 P  dz2             0.0       0.0       0.0       0.0       0.6       0.0
11 P  dxz             0.0       0.0       0.1       0.0       0.8       0.0
11 P  dyz             0.0       0.0       0.7       0.0       0.6       0.2
[...]
 1 C  py              0.3       0.0       0.0       0.0
 1 C  dz2             0.1       0.0       0.2       0.0
 1 C  dxz             7.0       0.0       0.8       0.0
 1 C  dyz             0.7       0.0       0.0       0.0
 1 C  dx2y2           2.3       0.0       0.2       0.0
 1 C  dxy             1.3       0.0       0.0       0.0
 2 O  s               4.4       0.0       0.4       0.0
 2 O  pz              1.1       0.0       2.0       0.1
 2 O  px              1.1       0.0       0.2       0.0
 2 O  py              0.1       0.0       0.0       0.0
 2 O  dz2             3.7       0.0       7.7       0.5
 2 O  dxz            43.7       0.2       3.0       0.1
 2 O  dyz             2.0       0.0       8.4       0.5
 2 O  dx2y2           8.9       0.0       1.4       0.1
 2 O  dxy             4.3       0.0       0.5       0.0
 3 P  s               0.4       0.0       0.0       0.0
 3 P  pz              0.2       0.0       1.8       0.1
 3 P  px              0.8       0.0       0.5       0.0
 3 P  py              0.0       0.0       0.2       0.0
 3 P  dz2             0.1       0.0       0.6       0.0
 3 P  dxz             0.0       0.0       1.0       0.0
 3 P  dyz             0.2       0.0       0.1       0.0
 3 P  dx2y2           0.3       0.0       0.2       0.0
 5 O  s               0.3       0.0       0.4       0.0
 5 O  pz              0.5       0.0       2.9       0.1
 5 O  px              0.6       0.0       2.1       0.1
 5 O  dz2             4.1       0.0      42.0       1.1
 5 O  dxz             1.4       0.0       3.1       0.0
 5 O  dyz             0.0       0.0       0.2       0.0
 5 O  dx2y2           3.4       0.0       4.9       0.3
 5 O  dxy             0.3       0.0       0.0       0.0
 6 C  s               0.1       0.0       1.3       0.0
 6 C  pz              0.1       0.0       2.0       0.0
 6 C  px              0.0       0.0       0.3       0.0
 6 C  dz2             0.0       0.0       4.3       0.1
 6 C  dxz             0.4       0.0       2.6       0.1
 7 C  dyz             0.0       0.0       0.1       0.0
11 P  s               0.0       0.7       0.0       0.0
11 P  pz              0.0       0.0       0.0       1.8
11 P  px              0.0       0.7       0.0       0.4
11 P  py              0.0       0.0       0.0       1.0
11 P  dz2             0.0       0.2       0.0       0.1
11 P  dxz             0.0       0.2       0.0       0.8
11 P  dyz             0.0       0.2       0.0       0.5
11 P  dx2y2           0.0       0.0       0.0       0.4
11 P  dxy             0.0       0.0       0.0       0.3
13 O  s               0.0       2.5       0.0       0.4
13 O  pz              0.0       0.1       0.0       1.0
13 O  px              0.0       0.1       0.0       0.1
13 O  py              0.0       3.1       0.1       2.8
13 O  dz2             0.1      12.9       0.4      12.7
13 O  dxz             0.0       0.2       0.0       0.7
13 O  dyz             0.0       1.9       0.4      16.6
13 O  dx2y2           0.1      30.0       0.1       2.0
13 O  dxy             0.0       4.3       0.0       0.2
14 C  s               0.0       1.3       0.0       0.4
14 C  py              0.0       2.6       0.0       0.7
14 C  dz2             0.0       3.0       0.1       1.3
14 C  dyz             0.0       0.3       0.0       0.0
14 C  dx2y2           0.0       5.5       0.1       1.3
14 C  dxy             0.0       0.8       0.0       0.3
15 C  dyz             0.0       0.4       0.0       0.2
16 O  s               0.0       0.0       0.0       0.1
16 O  pz              0.0       1.2       0.1       2.0
16 O  px              0.0       0.8       0.0       1.6
16 O  py              0.0       0.3       0.0       0.5
16 O  dz2             0.1      11.0       0.8      18.5
16 O  dxz             0.0       0.4       0.0       0.1
16 O  dyz             0.0       4.5       0.5       9.2
16 O  dx2y2           0.0       5.1       0.2       9.9
17 C  s               0.0       0.4       0.0       0.8
17 C  pz              0.0       0.6       0.1       1.2
17 C  px              0.0       0.1       0.0       0.2
17 C  py              0.0       0.1       0.0       0.2
17 C  dz2             0.0       1.0       0.1       2.1
17 C  dxz             0.0       0.5       0.0       0.8
17 C  dyz             0.0       1.0       0.1       1.6
17 C  dx2y2           0.0       0.1       0.0       0.2
17 C  dxy             0.0       0.3       0.0       0.4
18 C  dxz             0.0       0.1       0.0       0.2


                      *****************************
                      * MAYER POPULATION ANALYSIS *
                      *****************************

  NA   - Mulliken gross atomic population
  ZA   - Total nuclear charge
  QA   - Mulliken gross atomic charge
  VA   - Mayer's total valence
  BVA  - Mayer's bonded valence
  FA   - Mayer's free valence

  ATOM       NA         ZA         QA         VA         BVA        FA
  0 C      6.3351     6.0000    -0.3351     3.9989     3.9989    -0.0000
  1 C      5.9923     6.0000     0.0077     4.0274     4.0274     0.0000
  2 O      8.3508     8.0000    -0.3508     2.1938     2.1938     0.0000
  3 P     14.3686    15.0000     0.6314     4.9329     4.9329     0.0000
  4 S     16.3189    16.0000    -0.3189     2.0843     2.0843    -0.0000
  5 O      8.3886     8.0000    -0.3886     2.1621     2.1621     0.0000
  6 C      5.9946     6.0000     0.0054     4.0092     4.0092     0.0000
  7 C      6.3209     6.0000    -0.3209     3.9979     3.9979     0.0000
  8 S     16.1006    16.0000    -0.1006     2.2895     2.2895     0.0000
  9 C      6.3608     6.0000    -0.3608     3.8174     3.8174    -0.0000
 10 S     16.0887    16.0000    -0.0887     2.2423     2.2423     0.0000
 11 P     14.3833    15.0000     0.6167     5.0102     5.0102     0.0000
 12 S     16.3257    16.0000    -0.3257     2.0870     2.0870     0.0000
 13 O      8.3687     8.0000    -0.3687     2.1669     2.1669    -0.0000
 14 C      6.0030     6.0000    -0.0030     3.9701     3.9701     0.0000
 15 C      6.2869     6.0000    -0.2869     4.0078     4.0078     0.0000
 16 O      8.3841     8.0000    -0.3841     2.1597     2.1597     0.0000
 17 C      6.0067     6.0000    -0.0067     3.9687     3.9687     0.0000
 18 C      6.2836     6.0000    -0.2836     4.0013     4.0013     0.0000
 19 H      0.8737     1.0000     0.1263     0.9660     0.9660     0.0000
 20 H      0.8602     1.0000     0.1398     0.9645     0.9645    -0.0000
 21 H      0.8846     1.0000     0.1154     0.9541     0.9541     0.0000
 22 H      0.8878     1.0000     0.1122     0.9484     0.9484     0.0000
 23 H      0.8913     1.0000     0.1087     0.9611     0.9611    -0.0000
 24 H      0.8979     1.0000     0.1021     0.9496     0.9496     0.0000
 25 H      0.8894     1.0000     0.1106     0.9814     0.9814     0.0000
 26 H      0.8808     1.0000     0.1192     0.9674     0.9674     0.0000
 27 H      0.8877     1.0000     0.1123     0.9539     0.9539     0.0000
 28 H      0.8762     1.0000     0.1238     0.9769     0.9769     0.0000
 29 H      0.7981     1.0000     0.2019     0.9942     0.9942    -0.0000
 30 H      0.8177     1.0000     0.1823     0.9297     0.9297     0.0000
 31 H      0.8848     1.0000     0.1152     0.9901     0.9901     0.0000
 32 H      0.9027     1.0000     0.0973     0.9529     0.9529     0.0000
 33 H      0.8937     1.0000     0.1063     0.9549     0.9549    -0.0000
 34 H      0.8887     1.0000     0.1113     0.9593     0.9593     0.0000
 35 H      0.8690     1.0000     0.1310     0.9688     0.9688    -0.0000
 36 H      0.8967     1.0000     0.1033     1.0053     1.0053    -0.0000
 37 H      0.9003     1.0000     0.0997     0.9507     0.9507    -0.0000
 38 H      0.8900     1.0000     0.1100     0.9547     0.9547     0.0000
 39 H      0.8844     1.0000     0.1156     0.9584     0.9584     0.0000
 40 H      0.8826     1.0000     0.1174     0.9615     0.9615     0.0000

  Mayer bond orders larger than 0.100000
B(  0-C ,  1-C ) :   1.1707 B(  0-C , 19-H ) :   0.9320 B(  0-C , 20-H ) :   0.9399 
B(  0-C , 21-H ) :   0.9354 B(  1-C ,  2-O ) :   0.9009 B(  1-C , 22-H ) :   0.9324 
B(  1-C , 23-H ) :   0.9263 B(  2-O ,  3-P ) :   1.1461 B(  3-P ,  4-S ) :   1.6034 
B(  3-P ,  5-O ) :   1.0559 B(  3-P ,  8-S ) :   0.9439 B(  4-S ,  8-S ) :   0.1163 
B(  4-S , 29-H ) :   0.1119 B(  5-O ,  6-C ) :   0.9191 B(  6-C ,  7-C ) :   1.1645 
B(  6-C , 24-H ) :   0.9346 B(  6-C , 25-H ) :   0.9166 B(  7-C , 26-H ) :   0.9420 
B(  7-C , 27-H ) :   0.9367 B(  7-C , 28-H ) :   0.9377 B(  8-S ,  9-C ) :   1.0044 
B(  9-C , 10-S ) :   0.9951 B(  9-C , 29-H ) :   0.8444 B(  9-C , 30-H ) :   0.9082 
B( 10-S , 11-P ) :   0.9776 B( 10-S , 12-S ) :   0.1174 B( 11-P , 12-S ) :   1.6394 
B( 11-P , 13-O ) :   1.1328 B( 11-P , 16-O ) :   1.0958 B( 13-O , 14-C ) :   0.8912 
B( 14-C , 15-C ) :   1.1652 B( 14-C , 31-H ) :   0.9097 B( 14-C , 32-H ) :   0.9306 
B( 15-C , 33-H ) :   0.9413 B( 15-C , 34-H ) :   0.9491 B( 15-C , 35-H ) :   0.9447 
B( 16-O , 17-C ) :   0.9092 B( 17-C , 18-C ) :   1.1613 B( 17-C , 36-H ) :   0.9005 
B( 17-C , 37-H ) :   0.9326 B( 18-C , 38-H ) :   0.9420 B( 18-C , 39-H ) :   0.9510 
B( 18-C , 40-H ) :   0.9510 

-------
TIMINGS
-------

Total SCF time: 0 days 0 hours 0 min 16 sec 

Total time                  ....      16.651 sec
Sum of individual times     ....      16.152 sec  ( 97.0%)

SCF preparation             ....       0.226 sec  (  1.4%)
Fock matrix formation       ....      14.763 sec  ( 88.7%)
  Startup                   ....       0.070 sec  (  0.5% of F)
  Split-RI-J                ....       8.764 sec  ( 59.4% of F)
  XC integration            ....       5.380 sec  ( 36.4% of F)
    Basis function eval.    ....       2.049 sec  ( 38.1% of XC)
    Density eval.           ....       1.021 sec  ( 19.0% of XC)
    XC-Functional eval.     ....       0.409 sec  (  7.6% of XC)
    XC-Potential eval.      ....       1.182 sec  ( 22.0% of XC)
Diagonalization             ....       0.000 sec  (  0.0%)
Density matrix formation    ....       0.242 sec  (  1.5%)
Total Energy calculation    ....       0.026 sec  (  0.2%)
Population analysis         ....       0.199 sec  (  1.2%)
Orbital Transformation      ....       0.096 sec  (  0.6%)
Orbital Orthonormalization  ....       0.000 sec  (  0.0%)
DIIS solution               ....       0.463 sec  (  2.8%)
  MO trafo                  ....       0.000 sec  (  0.0 % of DIIS)
  Orb grad                  ....       0.000 sec  (  0.0 % of DIIS)
  Energy W gradient         ....       0.000 sec  (  0.0 % of DIIS)
  DIIS error                ....       0.029 sec  (  6.3 % of DIIS)
  DIIS work                 ....       0.369 sec  ( 79.7 % of DIIS)
  Form Q                    ....       0.000 sec  (  0.0 % of DIIS)
  Form QpQm                 ....       0.000 sec  (  0.0 % of DIIS)
  Exp/Cayley                ....       0.000 sec  (  0.0 % of DIIS)
  Orb update                ....       0.000 sec  (  0.0 % of DIIS)
  Wake-sleep                ....       0.013 sec  (  2.9 % of DIIS)
SOSCF solution              ....       0.135 sec  (  0.8%)
  MO trafo                  ....       0.073 sec  ( 54.2 % of SOSCF)
  Orb grad                  ....       0.002 sec  (  1.3 % of SOSCF)
  Rot update                ....       0.026 sec  ( 19.6 % of SOSCF)
  Step                      ....       0.033 sec  ( 24.7 % of SOSCF)
Finished LeanSCF after  16.7 sec

Maximum memory used throughout the entire LEANSCF-calculation: 34.4 MB


-------------------------------------------------------------------------------
                          DFT DISPERSION CORRECTION                            
                                                                               
                                DFTD4 V3.4.0                                   
-------------------------------------------------------------------------------
The PBE functional is recognized
Active option DFTDOPT                   ...         5   

-------------------------   ----------------
Dispersion correction           -0.066290512
-------------------------   ----------------

------------------   -----------------
gCP correction             0.184285095
------------------   -----------------

-------------------------   --------------------
FINAL SINGLE POINT ENERGY     -2929.515081101872
-------------------------   --------------------


------------------------------------------------------------------------------
                              ORCA PROPERTY CALCULATIONS
------------------------------------------------------------------------------

GBWName                                 ... sp.gbw
Number of atoms                         ...     41
Number of basis functions               ...    334
Max core memory                         ...   1024 MB

Electric properties:
Dipole moment                           ... YES
Quadrupole moment                       ...  NO
Static polarizability (Dipole/Dipole)   ...  NO
Static polarizability (Dipole/Quad.)    ...  NO
Static polarizability (Quad./Quad.)     ...  NO
Static polarizability (Velocity)        ...  NO

Atomic electric properties:
Dipole moment                           ...  NO
Quadrupole moment                       ...  NO
Static polarizability                   ...  NO

Choice of electric origin               ... Center of mass
Position of electric origin             ...     0.000000    -0.000002     0.000001

General magnetic properties:
Magnetizability                         ...  NO

EPR properties:
g-Tensor (aka g-matrix)                 ...  NO
Zero-Field splitting spin-orbit         ...  NO
Zero-field splitting spin-spin          ...  NO
Hyperfine couplings                     ...  NO (   0 nuclei)
Quadrupole couplings                    ...  NO (   0 nuclei)
Contact density                         ...  NO (   0 nuclei)

NMR properties:
Chemical shifts                         ...  NO (   0 nuclei)
Spin-rotation constants                 ...  NO (   0 nuclei)
Spin-spin couplings                     ...  NO (   0 nuclei,    0 pairs)

Choice of magnetic origin               ... GIAO
Position of magnetic origin             ...     0.000000     0.000000     0.000000

Properties with geometric perturbations:
SCF Hessian                             ...  NO
IR spectrum                             ...  NO
VCD spectrum                            ...  NO
X-ray spectroscopy properties:
SCF XES/XAS/RIXS spectra                ...  NO


-------------
DIPOLE MOMENT
-------------

Method             : SCF
Type of density    : Electron Density
Multiplicity       :   1
Irrep              :   0
Energy             : -2929.6330756852107697 Eh
Relativity type    : 
Basis              : AO
                                X                 Y                 Z
Electronic contribution:      0.007862955      -2.880350909       0.351742046
Nuclear contribution   :      0.530726482       2.420827769      -0.362395948
                        -----------------------------------------
Total Dipole Moment    :      0.538589437      -0.459523139      -0.010653902
                        -----------------------------------------
Magnitude (a.u.)       :      0.708063276
Magnitude (Debye)      :      1.799753819



--------------------
Rotational spectrum 
--------------------
 
Rotational constants in cm-1:             0.011929             0.005297             0.004865 
Rotational constants in MHz :           357.635198           158.791414           145.843355 

Dipole components along the rotational axes: 
x,y,z [a.u.] :    -0.511495    -0.318001     0.372293 
x,y,z [Debye]:    -1.300117    -0.808294     0.946293 

 

Dipole moment calculation done in   0.0 sec 

Maximum memory used throughout the entire PROP-calculation: 23.8 MB

--------------------------------
SUGGESTED CITATIONS FOR THIS RUN
--------------------------------

Below you find a list of papers that are relevant to this ORCA run
We neither can nor want to force you to cite these papers, but we appreciate if you do
You receive ORCA, which is the product of decades of hard work by many enthusiastic individuals, for free
The only thing we kindly ask in return is that you cite our papers,
We deeply appreciate it, if you show your appreciation for ORCA by not just citing the generic ORCA reference.

Please note that relegating all ORCA citations to the supporting information does *not* help us.
SI sections are not indexed - citations you put there will not count into any citation statistics
But we need these citations in order to attract the funding resources that allow us to do what we are doing

Therefore, if you are a happy ORCA user, please consider citing a few of the papers listed below in the main body of your paper

In addition to the list printed below, the program has created the file sp.bibtex that contains the list in bibtex format
You can import this file easily into all common literature databanks and citation aid programs


List of essential papers. We consider these as the minimum necessary citations

  1. Neese,F.
     Software update: the ORCA program system, version 5.0
     WIRES Comput. Molec. Sci., 2022 12(1)e1606
     doi.org/10.1002/wcms.1606

List of papers to cite with high priority. The work reported in these papers was absolutely
necessary for this run to complete.
Our perspective: the developers of density functionals and basis sets usually get cited in chemistry papers
Good! But without the algorithms to do something with them, the functionals or basis sets would not do anything.
Hence, in our opinion, the algorithm design and method developments papers are equally worthy of getting cited

  1. Neese,F.
     An improvement of the resolution of the identity approximation for the formation of the Coulomb matrix
     J. Comp. Chem., 2003 24(14)1740-1747
     doi.org/10.1002/jcc.10318
  2. Neese,F.
     The SHARK Integral Generation and Digestion System
     J. Comp. Chem., 2022  1-16
     doi.org/10.1002/jcc.26942
  3. Caldeweyher,E.; Bannwarth,C.; Grimme,S.
     Extension of the D3 dispersion coefficient model
     J. Chem. Phys., 2017 147 034112-XXXX
     doi.org/10.1063/1.4993215
  4. Caldeweyher,E.; Ehlert,S.; Hansen,A.; Neugebauer,H.; Spicher,S.; Bannwarth,C.; Grimme,S.
     A generally applicable atomic-charge dependent London dispersion correction
     J. Chem. Phys., 2019 150 154122-XXXX
     doi.org/10.1063/1.5090222
  5. Caldeweyher,E.; Mewes,J.; Ehlert,S.; Grimme,S.
     Extension and evaluation of the D4 London-dispersion model for periodic systems
     Phys. Chem. Chem. Phys., 2020 22(16)8499-8512
     doi.org/10.1039/D0CP00502A

List of suggested additional citations. These are papers that are important in the 'surrounding' of 
of this run, or papers that preceded the highly important papers. If you like your results we are grateful for a citation.

  1. Neese,F.
     The ORCA program system
     WIRES Comput. Molec. Sci., 2012 2(1)73-78
     doi.org/10.1002/wcms.81
  2. Neese,F.
     Software update: the ORCA program system, version 4.0
     WIRES Comput. Molec. Sci., 2018 8(1)1-6
     doi.org/10.1002/wcms.1327
  3. Neese,F.; Wennmohs,F.; Becker,U.; Riplinger,C.
     The ORCA quantum chemistry program package
     J. Chem. Phys., 2020 152 Art. No. L224108
     doi.org/10.1063/5.0004608

List of optional additional citations

  1. Neese,F.
     Approximate second-order SCF convergence for spin unrestricted wavefunctions
     Chem. Phys. Lett., 2000 325(1-3)93-98
     doi.org/10.1016/s0009-2614(00)00662-x

Timings for individual modules:

Sum of individual times          ...       20.395 sec (=   0.340 min)
Startup calculation              ...        1.563 sec (=   0.026 min)   7.7 %
SCF iterations                   ...       18.697 sec (=   0.312 min)  91.7 %
Property calculations            ...        0.135 sec (=   0.002 min)   0.7 %
                             ****ORCA TERMINATED NORMALLY****
TOTAL RUN TIME: 0 days 0 hours 0 minutes 21 seconds 285 msec
