12
 energy: -711.907854008502 gnorm: 0.045712513688 xtb: 6.7.1 (edcfbbe)
C            1.04713793796401        1.35106277709869        0.00007317080003
C            0.36237113766058        0.18924643798386        0.00010469740005
C            1.05581421026786       -1.08666605878153        0.00004481090002
O            0.53088680123525       -2.18046349336622        0.00002260500001
N            2.43532598157916       -0.95274266792219        0.00000051870000
C            3.16100757470073        0.21294012019436        0.00000500330000
O            4.37470655833855        0.23206077380283       -0.00008440580004
N            2.40506534976575        1.35925570850232        0.00000955950000
I           -1.73637094076943        0.11597118385139       -0.00001534350001
H            0.55453429574573        2.31217438102459        0.00013121570006
H            2.97332860751756       -1.81519272210436       -0.00003794720002
H            2.91335288999098        2.23726538159139       -0.00003360700001
12
 energy: -711.908995999955 gnorm: 0.011974847611 xtb: 6.7.1 (edcfbbe)
C            1.03588844570036        1.34065824885383        0.00005879395199
C            0.35095549239304        0.17468593349899        0.00004725919592
C            1.05602956022062       -1.09434792910756        0.00002009500149
O            0.54004353717719       -2.20770418131129        0.00001253808986
N            2.44197648234753       -0.95467913323429       -0.00000472352467
C            3.16949372676238        0.21480517898536       -0.00002822874437
O            4.39519267255248        0.23900622850141       -0.00005140007091
N            2.39906451262253        1.35621687490154        0.00001863993155
I           -1.74189690564136        0.17473260436547        0.00007101811926
H            0.54777704539850        2.30745448466421        0.00008297155406
H            2.98378117987078       -1.81335367251805       -0.00001671005560
H            2.89885513940527        2.23743801383272        0.00001024743481
12
 energy: -711.909107777689 gnorm: 0.004984905512 xtb: 6.7.1 (edcfbbe)
C            1.03856129048623        1.34498362674204        0.00004632756486
C            0.34636341436711        0.18132546069446        0.00003921408528
C            1.04777741916236       -1.08548314270296        0.00000874284572
O            0.53201699845879       -2.20465933718063        0.00000933240798
N            2.43812631092656       -0.95194152099650       -0.00000644486479
C            3.17293060720593        0.21493317359582       -0.00001499349036
O            4.40248935381554        0.23476789286544       -0.00004278072399
N            2.40304062229766        1.35760447942749        0.00002053781427
I           -1.74104137614151        0.13984245367208        0.00009623970661
H            0.55855099149639        2.31672062051269        0.00007020915531
H            2.97701642131990       -1.81220716029409       -0.00002143276264
H            2.90132856334203        2.23902562524547        0.00001541580963
12
 energy: -711.909138402022 gnorm: 0.002283164246 xtb: 6.7.1 (edcfbbe)
C            1.03768047611010        1.34214776032631        0.00004625899939
C            0.34606006707284        0.17805129605612        0.00004479444324
C            1.04939133344209       -1.08644585663729        0.00001556566086
O            0.53719094657738       -2.20641733276198        0.00000949610247
N            2.43977211511905       -0.95245273123743       -0.00000597962383
C            3.17307729004789        0.21479382578518       -0.00001012924825
O            4.40155260048749        0.23586047490268       -0.00004555176406
N            2.40190823339655        1.35625463083375        0.00001971733752
I           -1.74516963896347        0.15206765524559        0.00008879498540
H            0.55876758336643        2.31427410801185        0.00007207006173
H            2.97905401293323       -1.81253560414135       -0.00002699079864
H            2.89787569428972        2.23931412500707        0.00001236821960
12
 energy: -711.909143166647 gnorm: 0.000830145929 xtb: 6.7.1 (edcfbbe)
C            1.03760557523820        1.34150581661498        0.00004840738522
C            0.34614891046720        0.17741171486945        0.00004817646270
C            1.04893701912007       -1.08614677829823        0.00001725780850
O            0.53857962349061       -2.20662274641391        0.00001190723676
N            2.43983808780657       -0.95242344474760       -0.00000762203135
C            3.17309480393132        0.21464366879195       -0.00001438416700
O            4.40102465163487        0.23587178014693       -0.00004436111403
N            2.40157442473463        1.35585236876815        0.00001910314274
I           -1.74400703051065        0.15365324372452        0.00008522784281
H            0.55994746800613        2.31411092691862        0.00007059295809
H            2.97857585197655       -1.81287252682075       -0.00002834051644
H            2.89584134421290        2.23992834999477        0.00001445403932
12
 energy: -711.909143166647 gnorm: 0.000830145929 xtb: 6.7.1 (edcfbbe)
C            1.03760557523820        1.34150581661498        0.00004840738522
C            0.34614891046720        0.17741171486945        0.00004817646270
C            1.04893701912007       -1.08614677829823        0.00001725780850
O            0.53857962349061       -2.20662274641391        0.00001190723676
N            2.43983808780657       -0.95242344474760       -0.00000762203135
C            3.17309480393132        0.21464366879195       -0.00001438416700
O            4.40102465163487        0.23587178014693       -0.00004436111403
N            2.40157442473463        1.35585236876815        0.00001910314274
I           -1.74400703051065        0.15365324372452        0.00008522784281
H            0.55994746800613        2.31411092691862        0.00007059295809
H            2.97857585197655       -1.81287252682075       -0.00002834051644
H            2.89584134421290        2.23992834999477        0.00001445403932
