 Entering Gaussian System
 *********************************************
 Gaussian 98:
 frequency output generated by the xtb code
 *********************************************
                         Standard orientation:
 --------------------------------------------------------------------
  Center     Atomic     Atomic              Coordinates (Angstroms)
  Number     Number      Type              X           Y           Z
 --------------------------------------------------------------------
    1          6             0        3.615862   -4.058146   -0.769174
    2          6             0        2.137506   -3.703402   -0.776959
    3          8             0        1.923031   -2.371172   -0.271990
    4          6             0        2.057584   -1.359896   -1.106524
    5          8             0        2.309933   -1.465102   -2.285659
    6          6             0        1.816788   -0.034443   -0.409839
    7          6             0        0.680766    0.700985   -1.115345
    8          1             0        0.960806    0.881380   -2.159148
    9          6             0        0.356620    2.039824   -0.471736
   10          8             0       -0.776629    2.416100   -0.261702
   11          8             0        1.452502    2.713809   -0.238788
   12          6             0        1.376054    4.031894    0.346580
   13          6             0        1.432538    3.960128    1.863234
   14         16             0       -0.832223   -0.307256   -1.255297
   15         15             0       -1.700758   -0.122492    0.677967
   16         16             0       -0.564419    0.318345    2.205395
   17          8             0       -2.980948    0.795179    0.588164
   18          6             0       -3.966057    0.662534   -0.454136
   19          8             0       -2.414929   -1.558430    0.796152
   20          6             0       -1.677671   -2.771314    0.976012
   21          1             0        4.163958   -3.388480   -1.428045
   22          1             0        4.016961   -3.972939    0.236987
   23          1             0        3.741225   -5.076928   -1.120462
   24          1             0        1.571586   -4.345755   -0.102095
   25          1             0        1.731016   -3.757760   -1.791018
   26          1             0        2.718359    0.575594   -0.487199
   27          1             0        1.582833   -0.209953    0.640905
   28          1             0        2.247587    4.549511   -0.056385
   29          1             0        0.453917    4.512347    0.010177
   30          1             0        0.579738    3.404700    2.248733
   31          1             0        2.343334    3.463523    2.185266
   32          1             0        1.411494    4.966850    2.267810
   33          1             0       -3.509186    0.877450   -1.419968
   34          1             0       -4.727289    1.401558   -0.218612
   35          1             0       -4.384181   -0.342624   -0.449536
   36          1             0       -2.425037   -3.549960    1.110451
   37          1             0       -1.040122   -2.696318    1.857856
   38          1             0       -1.068984   -2.975249    0.094737
 --------------------------------------------------------------------
     1 basis functions        1 primitive gaussians
     1 alpha electrons        1 beta electrons
 
 Harmonic frequencies (cm**-1), IR intensities (km*mol⁻¹),
 Raman scattering activities (A**4/amu), Raman depolarization ratios,
 reduced masses (AMU), force constants (mDyne/A) and normal coordinates:
                      1                      2                      3
                        a                      a                      a 
 Frequencies --    53.8839                55.9305                61.6244
 Red. masses --    20.4758                16.2134                20.2330
 Frc consts  --     0.0000                 0.0000                 0.0000
 IR Inten    --    11.7827                 6.2404                 9.3103
 Raman Activ --     0.0000                 0.0000                 0.0000
 Depolar     --     0.0000                 0.0000                 0.0000
 Atom AN      X      Y      Z        X      Y      Z        X      Y      Z
   1   6     0.02  -0.03  -0.12    -0.17   0.01  -0.10    -0.24   0.03   0.19
   2   6     0.01  -0.04  -0.13    -0.16   0.03  -0.17    -0.23   0.05   0.14
   3   8    -0.01  -0.07  -0.10    -0.23   0.01  -0.15    -0.27   0.09   0.08
   4   6     0.04  -0.02  -0.04     0.19   0.07   0.01    -0.04   0.04   0.05
   5   8     0.14   0.03  -0.03     0.71   0.17   0.10     0.13  -0.04   0.10
   6   6    -0.00  -0.05  -0.00     0.05   0.03   0.03    -0.02   0.08  -0.03
   7   6    -0.02  -0.07   0.01     0.01  -0.05   0.01    -0.02   0.06  -0.05
   8   1    -0.01  -0.02   0.00    -0.00  -0.02   0.00    -0.00   0.02  -0.01
   9   6    -0.05  -0.05  -0.04    -0.01  -0.04  -0.02    -0.06   0.05  -0.06
  10   8    -0.08   0.08  -0.42    -0.02  -0.11   0.08    -0.09   0.11  -0.26
  11   8    -0.05  -0.19   0.29    -0.03   0.03  -0.15    -0.08   0.01   0.12
  12   6    -0.05  -0.14   0.20    -0.04   0.02  -0.13    -0.10   0.02   0.08
  13   6    -0.06  -0.11   0.20     0.00   0.02  -0.13    -0.11   0.04   0.09
  14  16    -0.00  -0.17   0.06     0.06  -0.17   0.14    -0.01   0.05  -0.16
  15  15     0.01   0.07   0.03    -0.04   0.00   0.09     0.17  -0.13  -0.07
  16  16     0.04   0.55  -0.13    -0.09  -0.05   0.14     0.44  -0.24  -0.24
  17   8    -0.01   0.01  -0.05     0.00   0.04   0.01     0.15  -0.03   0.10
  18   6    -0.02  -0.06  -0.02     0.01   0.04  -0.00     0.06   0.05   0.15
  19   8     0.05   0.05   0.22    -0.08   0.03   0.05     0.07  -0.06  -0.04
  20   6     0.05   0.03   0.08    -0.09   0.01   0.04     0.02  -0.07  -0.02
  21   1     0.01  -0.00  -0.03    -0.04   0.00  -0.02    -0.06   0.00   0.05
  22   1    -0.00  -0.01  -0.03    -0.06  -0.00  -0.02    -0.07   0.02   0.06
  23   1     0.01  -0.00  -0.04    -0.05   0.00  -0.03    -0.07   0.01   0.06
  24   1     0.00  -0.02  -0.05    -0.06   0.00  -0.06    -0.07   0.03   0.05
  25   1     0.01  -0.00  -0.04    -0.03   0.02  -0.06    -0.06   0.00   0.04
  26   1    -0.01  -0.01   0.00    -0.00   0.03   0.02    -0.00   0.02  -0.02
  27   1     0.00  -0.02  -0.00     0.01  -0.00   0.00    -0.00   0.04  -0.01
  28   1    -0.01  -0.04   0.06    -0.01   0.01  -0.04    -0.03   0.01   0.03
  29   1    -0.01  -0.05   0.05    -0.01   0.00  -0.03    -0.03   0.00   0.02
  30   1    -0.01  -0.03   0.06     0.00   0.00  -0.03    -0.03   0.01   0.02
  31   1    -0.01  -0.03   0.06     0.00   0.01  -0.04    -0.03   0.01   0.03
  32   1    -0.02  -0.03   0.05     0.00   0.00  -0.04    -0.03   0.01   0.02
  33   1    -0.01  -0.02  -0.01     0.01   0.01   0.00     0.00   0.02   0.04
  34   1    -0.01  -0.03  -0.01     0.00   0.01  -0.00     0.03   0.02   0.06
  35   1     0.01  -0.02   0.00     0.00   0.01  -0.00     0.00   0.02   0.04
  36   1     0.01   0.01   0.01    -0.03   0.01   0.01    -0.00  -0.01   0.00
  37   1     0.02  -0.01   0.02    -0.03  -0.00   0.01     0.01  -0.02  -0.01
  38   1     0.01   0.03   0.01    -0.03   0.00   0.01     0.00  -0.03  -0.00
                      4                      5                      6
                        a                      a                      a 
 Frequencies --    66.6295                83.3050                79.0443
 Red. masses --    16.5707                17.1056                17.9806
 Frc consts  --     0.0000                 0.0000                 0.0000
 IR Inten    --     3.0178                 8.2508                 1.9842
 Raman Activ --     0.0000                 0.0000                 0.0000
 Depolar     --     0.0000                 0.0000                 0.0000
 Atom AN      X      Y      Z        X      Y      Z        X      Y      Z
   1   6     0.17  -0.00  -0.00    -0.07  -0.08   0.05    -0.28  -0.11  -0.19
   2   6     0.19   0.04   0.01    -0.06  -0.04   0.02    -0.24   0.06  -0.03
   3   8     0.28   0.06  -0.00    -0.02  -0.02  -0.03    -0.00   0.09   0.03
   4   6     0.08   0.04  -0.05    -0.00  -0.05  -0.06    -0.05   0.06   0.01
   5   8    -0.06   0.03  -0.09    -0.07  -0.11  -0.08    -0.34   0.04  -0.05
   6   6     0.06   0.03  -0.06     0.07  -0.02  -0.08     0.15   0.09   0.02
   7   6    -0.03  -0.05  -0.01     0.05  -0.01  -0.04     0.10   0.05   0.06
   8   1    -0.03  -0.02  -0.01     0.01   0.02  -0.01     0.02   0.01   0.01
   9   6    -0.07  -0.05  -0.05    -0.03  -0.10   0.11     0.02   0.05  -0.00
  10   8    -0.10  -0.02  -0.21    -0.06  -0.38   0.46    -0.01   0.04  -0.13
  11   8    -0.09  -0.07   0.06    -0.12   0.09  -0.09    -0.01   0.09   0.06
  12   6    -0.10  -0.04   0.00    -0.24   0.00   0.08    -0.06   0.11  -0.02
  13   6    -0.10   0.01   0.00    -0.30  -0.14   0.07    -0.07   0.18  -0.02
  14  16     0.05  -0.27   0.14     0.14  -0.10  -0.06     0.37  -0.23   0.19
  15  15    -0.05   0.03   0.06     0.14   0.23  -0.08     0.11  -0.12   0.05
  16  16     0.13  -0.30   0.02     0.21   0.17  -0.11    -0.14   0.03   0.20
  17   8     0.12   0.24   0.04     0.06   0.12  -0.08     0.10  -0.08  -0.13
  18   6     0.11   0.32   0.02     0.04   0.01  -0.04     0.16  -0.04  -0.19
  19   8    -0.27   0.14   0.03     0.07   0.18   0.03     0.06  -0.08   0.00
  20   6    -0.35   0.05   0.01     0.01   0.12   0.02     0.01  -0.09   0.01
  21   1     0.05  -0.01  -0.00    -0.01  -0.03   0.01    -0.08  -0.05  -0.07
  22   1     0.05  -0.00  -0.00    -0.02  -0.02   0.01    -0.05  -0.05  -0.07
  23   1     0.04  -0.00  -0.00    -0.02  -0.02   0.02    -0.12  -0.03  -0.07
  24   1     0.05   0.02   0.01    -0.03  -0.00   0.01    -0.07   0.03   0.01
  25   1     0.05   0.01   0.00    -0.01  -0.01   0.00    -0.10   0.04   0.00
  26   1     0.00   0.02  -0.03     0.02  -0.01  -0.03     0.05   0.01  -0.02
  27   1     0.03   0.01  -0.01     0.03  -0.00  -0.02     0.06   0.04   0.01
  28   1    -0.03  -0.01  -0.00    -0.08   0.03   0.05    -0.02   0.03  -0.01
  29   1    -0.03  -0.02  -0.01    -0.08  -0.01   0.03    -0.02   0.02  -0.02
  30   1    -0.03   0.01   0.01    -0.08  -0.06  -0.00    -0.02   0.05  -0.00
  31   1    -0.03   0.01   0.01    -0.08  -0.03   0.02    -0.02   0.06   0.00
  32   1    -0.03   0.01  -0.01    -0.10  -0.05   0.05    -0.02   0.06  -0.02
  33   1     0.04   0.10   0.01     0.00  -0.00  -0.02     0.07  -0.01  -0.04
  34   1     0.04   0.10   0.01     0.00  -0.01  -0.02     0.04  -0.01  -0.07
  35   1     0.01   0.10  -0.01     0.02  -0.00   0.00     0.04  -0.01  -0.07
  36   1    -0.12   0.03  -0.00    -0.01   0.04   0.00    -0.00  -0.02   0.00
  37   1    -0.10  -0.01   0.00     0.00   0.03   0.01     0.00  -0.03   0.01
  38   1    -0.11   0.00   0.00     0.00   0.03   0.01     0.00  -0.03   0.01
                      7                      8                      9
                        a                      a                      a 
 Frequencies --    75.8014                82.2601                93.6832
 Red. masses --    11.5643                12.8728                13.2594
 Frc consts  --     0.0000                 0.0000                 0.0000
 IR Inten    --     0.6141                 1.8781                 3.5566
 Raman Activ --     0.0000                 0.0000                 0.0000
 Depolar     --     0.0000                 0.0000                 0.0000
 Atom AN      X      Y      Z        X      Y      Z        X      Y      Z
   1   6     0.06  -0.04  -0.38    -0.06   0.03  -0.31     0.00   0.03  -0.08
   2   6     0.04  -0.14  -0.09    -0.04   0.10   0.16    -0.00   0.02   0.08
   3   8     0.02  -0.24   0.12     0.17   0.12   0.27     0.02   0.01   0.14
   4   6    -0.01  -0.12   0.20     0.06   0.08   0.18    -0.02  -0.00   0.11
   5   8     0.00  -0.02   0.23    -0.00   0.03   0.20    -0.02  -0.03   0.13
   6   6    -0.05  -0.16   0.27     0.02   0.11   0.10    -0.06   0.02   0.04
   7   6     0.08  -0.07   0.14    -0.00   0.00   0.01    -0.01  -0.01  -0.09
   8   1     0.06  -0.03   0.05     0.01  -0.00   0.01     0.01  -0.04  -0.03
   9   6     0.06  -0.03   0.04    -0.07  -0.01  -0.01    -0.01   0.04  -0.20
  10   8     0.04  -0.02  -0.09    -0.10  -0.08   0.05    -0.01   0.01  -0.17
  11   8     0.03   0.02   0.07    -0.10   0.04  -0.09    -0.02   0.09  -0.33
  12   6    -0.10   0.09  -0.12    -0.03  -0.02   0.06    -0.03  -0.06   0.00
  13   6    -0.28   0.28  -0.10     0.38  -0.19   0.03    -0.15  -0.42  -0.01
  14  16     0.00   0.14  -0.06     0.10  -0.15  -0.07    -0.06   0.05   0.04
  15  15     0.03   0.07  -0.04    -0.05   0.01  -0.15     0.10   0.02   0.13
  16  16     0.11  -0.02  -0.07     0.04   0.03  -0.23    -0.09   0.12   0.25
  17   8     0.03   0.07   0.06    -0.02   0.02  -0.08     0.05  -0.01   0.15
  18   6    -0.07   0.02   0.15    -0.17  -0.08   0.09     0.15   0.16   0.01
  19   8     0.00   0.05  -0.06    -0.07   0.03  -0.05     0.11  -0.01   0.01
  20   6    -0.00   0.03  -0.12    -0.08   0.02   0.05     0.09  -0.07  -0.36
  21   1    -0.03   0.01  -0.12    -0.07   0.01  -0.13    -0.02   0.02  -0.03
  22   1     0.06  -0.03  -0.13     0.07  -0.01  -0.12     0.03  -0.00  -0.03
  23   1     0.02  -0.00  -0.14    -0.06   0.01  -0.11    -0.01   0.01  -0.04
  24   1     0.05  -0.07  -0.02     0.04   0.03   0.09     0.02  -0.00   0.03
  25   1    -0.04  -0.01  -0.01    -0.10   0.04   0.08    -0.03   0.01   0.03
  26   1    -0.01  -0.06   0.12    -0.00   0.04   0.02    -0.02   0.00   0.02
  27   1    -0.05  -0.06   0.07     0.00   0.05   0.03    -0.04   0.02   0.01
  28   1    -0.02   0.02  -0.02    -0.05   0.02  -0.03     0.00   0.00   0.05
  29   1    -0.02   0.00  -0.08    -0.04  -0.01   0.10     0.00   0.01   0.01
  30   1    -0.09   0.09  -0.04     0.15  -0.08   0.06    -0.05  -0.14  -0.06
  31   1    -0.09   0.10   0.02     0.14  -0.05  -0.07    -0.05  -0.15  -0.01
  32   1    -0.10   0.10  -0.06     0.13  -0.07   0.04    -0.05  -0.15   0.06
  33   1    -0.04  -0.00   0.03    -0.09  -0.04   0.00     0.07   0.09   0.03
  34   1    -0.02   0.01   0.06    -0.04  -0.02   0.04     0.04   0.04   0.01
  35   1    -0.02   0.00   0.06    -0.05  -0.02   0.07     0.04   0.05  -0.05
  36   1    -0.00   0.01  -0.04    -0.03   0.01   0.04     0.03  -0.02  -0.14
  37   1     0.01  -0.00  -0.04    -0.02   0.02   0.01     0.05  -0.08  -0.11
  38   1    -0.01   0.02  -0.04    -0.03  -0.02   0.02     0.00   0.04  -0.13
                     10                     11                     12
                        a                      a                      a 
 Frequencies --    90.9200                92.9566               120.9153
 Red. masses --    11.0696                11.2248                15.8082
 Frc consts  --     0.0000                 0.0000                 0.0000
 IR Inten    --     6.5047                 1.7927                17.3284
 Raman Activ --     0.0000                 0.0000                 0.0000
 Depolar     --     0.0000                 0.0000                 0.0000
 Atom AN      X      Y      Z        X      Y      Z        X      Y      Z
   1   6    -0.09  -0.20   0.05    -0.08  -0.36   0.22     0.02   0.08  -0.01
   2   6    -0.03   0.03   0.05     0.01  -0.01  -0.04    -0.01  -0.05   0.13
   3   8     0.19   0.10  -0.01     0.24   0.02  -0.02    -0.08  -0.02  -0.00
   4   6     0.12   0.03  -0.08     0.09   0.04  -0.01     0.02  -0.10  -0.09
   5   8     0.06  -0.03  -0.10     0.02   0.10  -0.03     0.10  -0.27  -0.07
   6   6     0.14   0.06  -0.11     0.01   0.01   0.04     0.09  -0.03  -0.19
   7   6     0.10   0.04  -0.07    -0.03  -0.01   0.07     0.05  -0.01  -0.11
   8   1     0.01   0.00  -0.03    -0.01   0.01   0.02    -0.00   0.02  -0.03
   9   6     0.13   0.05  -0.09    -0.07  -0.02   0.08    -0.03  -0.07  -0.02
  10   8     0.15   0.09  -0.13    -0.10  -0.06   0.07    -0.09  -0.18  -0.15
  11   8     0.15   0.05  -0.06    -0.10   0.01   0.06    -0.11  -0.06   0.19
  12   6     0.06   0.00   0.03    -0.07   0.06  -0.06    -0.19   0.00   0.06
  13   6    -0.26  -0.11   0.04     0.19   0.19  -0.06     0.18   0.17   0.05
  14  16     0.11   0.09   0.04    -0.03  -0.02   0.06     0.08   0.00  -0.07
  15  15    -0.04   0.05   0.00    -0.04  -0.02   0.04     0.06   0.13  -0.04
  16  16    -0.11  -0.04   0.07     0.09   0.20  -0.12    -0.31  -0.07   0.29
  17   8    -0.01   0.06   0.02    -0.08  -0.07   0.13     0.04   0.09   0.07
  18   6    -0.31  -0.31   0.34    -0.05   0.03   0.09    -0.09   0.13   0.18
  19   8    -0.08   0.05  -0.10     0.01  -0.03   0.02     0.10   0.04  -0.21
  20   6    -0.14   0.02  -0.01    -0.00  -0.11  -0.47     0.22   0.12  -0.11
  21   1     0.00  -0.08   0.01     0.05  -0.13   0.10    -0.03   0.02  -0.04
  22   1    -0.02  -0.07   0.01    -0.07  -0.14   0.08     0.04   0.06  -0.02
  23   1    -0.07  -0.06   0.02    -0.07  -0.11   0.06     0.02   0.02   0.01
  24   1    -0.03   0.04   0.03    -0.08   0.03  -0.05     0.03  -0.01   0.07
  25   1    -0.02   0.01   0.02     0.05   0.04  -0.03    -0.03  -0.06   0.05
  26   1     0.04   0.02  -0.05    -0.01   0.02   0.02     0.03  -0.02  -0.08
  27   1     0.05   0.02  -0.03     0.01  -0.01   0.01     0.04   0.01  -0.05
  28   1     0.04   0.00   0.07    -0.04   0.02  -0.07    -0.10   0.03  -0.05
  29   1     0.04   0.01  -0.03    -0.04  -0.00   0.01    -0.10  -0.05   0.06
  30   1    -0.10  -0.03  -0.05     0.08   0.06   0.03     0.10   0.03   0.09
  31   1    -0.10  -0.04   0.05     0.07   0.07  -0.05     0.09   0.09  -0.03
  32   1    -0.09  -0.04   0.03     0.06   0.06  -0.04     0.05   0.06  -0.02
  33   1    -0.17  -0.16   0.04    -0.01   0.02   0.03    -0.06   0.04   0.04
  34   1    -0.08  -0.08   0.10    -0.01   0.01   0.03    -0.02   0.04   0.09
  35   1    -0.07  -0.10   0.21    -0.02   0.01   0.01    -0.03   0.04   0.06
  36   1    -0.05   0.02   0.00    -0.00  -0.03  -0.16     0.09   0.01  -0.02
  37   1    -0.04   0.01   0.00     0.04  -0.11  -0.16     0.06   0.07  -0.03
  38   1    -0.04  -0.02   0.00    -0.05   0.04  -0.18     0.07   0.04  -0.03
                     13                     14                     15
                        a                      a                      a 
 Frequencies --   107.7936               115.4925               145.8476
 Red. masses --    12.4632                12.3560                15.7827
 Frc consts  --     0.0000                 0.0000                 0.0000
 IR Inten    --     2.4031                 4.6576                 0.1236
 Raman Activ --     0.0000                 0.0000                 0.0000
 Depolar     --     0.0000                 0.0000                 0.0000
 Atom AN      X      Y      Z        X      Y      Z        X      Y      Z
   1   6    -0.09  -0.41   0.00    -0.08  -0.06  -0.23    -0.01  -0.11  -0.10
   2   6     0.01  -0.03  -0.10    -0.06   0.06   0.25     0.00  -0.05   0.06
   3   8     0.29  -0.02  -0.01     0.20   0.16   0.13     0.07  -0.03   0.03
   4   6     0.09   0.04   0.03     0.14   0.01  -0.06     0.03  -0.05  -0.02
   5   8     0.05   0.15   0.01     0.20  -0.23  -0.04     0.13  -0.14   0.00
   6   6    -0.06  -0.02   0.09     0.08   0.08  -0.22    -0.04  -0.02  -0.08
   7   6     0.00   0.00  -0.01    -0.08   0.01  -0.07    -0.03   0.03  -0.05
   8   1     0.03  -0.01   0.00    -0.06   0.03  -0.03    -0.02   0.01  -0.02
   9   6    -0.04   0.02  -0.06     0.01  -0.03   0.08    -0.03   0.04  -0.04
  10   8    -0.08  -0.02  -0.12     0.06   0.03   0.18    -0.05   0.02  -0.10
  11   8    -0.09   0.07  -0.06     0.08  -0.14   0.13    -0.07   0.08   0.04
  12   6    -0.12   0.02   0.03     0.14  -0.06  -0.02    -0.15   0.06   0.05
  13   6    -0.02  -0.09   0.02    -0.19   0.11   0.00     0.12   0.04   0.04
  14  16    -0.11   0.19  -0.16    -0.19   0.06   0.02    -0.21   0.30   0.02
  15  15     0.01   0.01  -0.06    -0.14  -0.06   0.04     0.04   0.15   0.16
  16  16    -0.10  -0.14   0.06     0.02   0.06  -0.12     0.17  -0.18   0.18
  17   8    -0.03  -0.03   0.04    -0.16  -0.11   0.07    -0.01   0.05  -0.11
  18   6     0.04   0.19  -0.05     0.04   0.17  -0.14     0.22  -0.42  -0.27
  19   8     0.11  -0.05  -0.05     0.00  -0.09   0.08    -0.04   0.15   0.12
  20   6     0.23   0.10   0.39     0.10  -0.03  -0.01    -0.15   0.04  -0.06
  21   1     0.04  -0.15   0.02    -0.07  -0.04  -0.13    -0.02  -0.04  -0.05
  22   1    -0.04  -0.16   0.01     0.08  -0.01  -0.11     0.03  -0.03  -0.04
  23   1    -0.09  -0.12  -0.01    -0.08  -0.03  -0.06    -0.03  -0.04  -0.03
  24   1    -0.06   0.01  -0.05     0.03   0.05   0.15     0.02  -0.00   0.04
  25   1     0.02   0.04  -0.04    -0.11  -0.02   0.11    -0.03  -0.03   0.03
  26   1    -0.02   0.01   0.07     0.00   0.04  -0.11    -0.01  -0.01  -0.02
  27   1    -0.05  -0.02   0.02     0.07   0.05  -0.05    -0.01  -0.01  -0.02
  28   1    -0.05   0.03   0.01     0.08  -0.07   0.03    -0.08   0.05  -0.02
  29   1    -0.05  -0.00   0.03     0.08   0.01  -0.07    -0.08  -0.02   0.06
  30   1     0.00  -0.04   0.01    -0.09   0.07  -0.03     0.07  -0.01   0.05
  31   1     0.00  -0.03  -0.02    -0.09   0.02   0.07     0.06   0.04  -0.04
  32   1    -0.01  -0.03   0.03    -0.05   0.05  -0.04     0.03   0.01   0.02
  33   1     0.03   0.09   0.00     0.06   0.10  -0.01     0.10  -0.16  -0.07
  34   1     0.02   0.06   0.00     0.01   0.05  -0.03     0.01  -0.15  -0.17
  35   1    -0.00   0.06  -0.06    -0.00   0.06  -0.12     0.12  -0.14  -0.03
  36   1     0.09   0.01   0.15     0.05  -0.02   0.01    -0.06   0.03  -0.03
  37   1     0.04   0.12   0.13     0.05  -0.00  -0.02    -0.03  -0.03  -0.02
  38   1     0.10  -0.02   0.15     0.01   0.01  -0.02    -0.06   0.02  -0.03
                     16                     17                     18
                        a                      a                      a 
 Frequencies --   152.0901               175.6219                93.3368
 Red. masses --    15.7538                18.5278                 2.2491
 Frc consts  --     0.0000                 0.0000                 0.0000
 IR Inten    --     6.7494                 4.9993                 0.9621
 Raman Activ --     0.0000                 0.0000                 0.0000
 Depolar     --     0.0000                 0.0000                 0.0000
 Atom AN      X      Y      Z        X      Y      Z        X      Y      Z
   1   6     0.07  -0.01  -0.03     0.04   0.03   0.02    -0.02   0.03   0.02
   2   6     0.05  -0.07   0.03     0.01  -0.09  -0.02    -0.02   0.03  -0.01
   3   8     0.01  -0.06  -0.02    -0.09  -0.11  -0.05    -0.00   0.03   0.01
   4   6     0.02  -0.07  -0.05     0.02  -0.10  -0.04     0.01   0.03   0.02
   5   8     0.09  -0.14  -0.04     0.00  -0.17  -0.05    -0.04   0.05   0.01
   6   6     0.02  -0.04  -0.07     0.19  -0.05  -0.03     0.02   0.02   0.02
   7   6     0.06   0.06  -0.04     0.15   0.02   0.09     0.03  -0.02  -0.02
   8   1     0.02   0.02  -0.01     0.01  -0.02   0.01     0.01  -0.01  -0.00
   9   6     0.05   0.05  -0.00     0.12   0.09  -0.05     0.02  -0.04  -0.02
  10   8     0.03  -0.04   0.05     0.10   0.02  -0.15     0.00  -0.08  -0.03
  11   8    -0.01   0.17  -0.04     0.04   0.29  -0.12     0.02  -0.08   0.02
  12   6    -0.14   0.12   0.05    -0.17   0.17   0.07     0.04  -0.05  -0.03
  13   6     0.04   0.04   0.04     0.04  -0.08   0.06     0.01   0.01  -0.03
  14  16     0.01   0.21  -0.16     0.15   0.07   0.33     0.02   0.02  -0.03
  15  15     0.13  -0.23  -0.02    -0.31  -0.01   0.09     0.03   0.09  -0.01
  16  16    -0.13   0.33   0.01     0.14  -0.08  -0.26     0.02  -0.01   0.03
  17   8     0.10  -0.15   0.10    -0.30  -0.10   0.09    -0.07  -0.04   0.07
  18   6     0.07   0.13   0.08    -0.12   0.11  -0.09    -0.00  -0.08   0.01
  19   8    -0.01  -0.12  -0.03    -0.10  -0.07   0.04     0.02   0.06  -0.06
  20   6    -0.42  -0.32   0.17     0.11   0.05   0.01    -0.08   0.01   0.03
  21   1     0.00  -0.01  -0.03    -0.00   0.02   0.01    -0.00   0.01   0.02
  22   1     0.03   0.01  -0.02     0.00   0.02   0.01    -0.02  -0.00   0.01
  23   1     0.02  -0.01  -0.00     0.04   0.01   0.01    -0.00   0.01  -0.00
  24   1     0.03  -0.02   0.03     0.01  -0.03  -0.01    -0.01   0.01  -0.01
  25   1     0.00  -0.04   0.02     0.01  -0.04  -0.01     0.00   0.02  -0.01
  26   1     0.01  -0.02  -0.01     0.06  -0.03  -0.04     0.01   0.01   0.01
  27   1    -0.00  -0.01  -0.02     0.08  -0.01  -0.00     0.00   0.01   0.01
  28   1    -0.07   0.07  -0.00    -0.10   0.12   0.01     0.02  -0.02  -0.01
  29   1    -0.07  -0.00   0.05    -0.09   0.01   0.07     0.01  -0.01  -0.02
  30   1     0.04  -0.02   0.03     0.05  -0.09   0.02    -0.00   0.01  -0.00
  31   1     0.04   0.04  -0.03     0.05   0.01  -0.04    -0.00   0.00   0.00
  32   1    -0.01   0.01   0.03    -0.03  -0.04   0.07     0.01   0.01  -0.02
  33   1     0.02   0.07   0.03     0.00   0.10   0.01    -0.11   0.51   0.07
  34   1     0.04   0.05   0.06    -0.05   0.01  -0.01    -0.28  -0.41   0.29
  35   1    -0.01   0.05  -0.02    -0.02   0.03  -0.11     0.38  -0.19  -0.35
  36   1    -0.20  -0.02   0.03     0.07  -0.02   0.01    -0.04   0.02  -0.01
  37   1    -0.15  -0.13   0.07     0.03   0.04  -0.00    -0.05  -0.01   0.03
  38   1    -0.10  -0.17   0.08     0.03   0.04  -0.00    -0.00  -0.01   0.03
                     19                     20                     21
                        a                      a                      a 
 Frequencies --   116.8168               223.3077               223.1809
 Red. masses --     2.5180                13.7983                11.7954
 Frc consts  --     0.0000                 0.0000                 0.0000
 IR Inten    --     0.9975                 3.9693                18.6166
 Raman Activ --     0.0000                 0.0000                 0.0000
 Depolar     --     0.0000                 0.0000                 0.0000
 Atom AN      X      Y      Z        X      Y      Z        X      Y      Z
   1   6     0.01  -0.01   0.01     0.08  -0.17  -0.04    -0.04   0.03   0.02
   2   6     0.01  -0.01  -0.01     0.08  -0.14   0.04    -0.04   0.05   0.03
   3   8    -0.00  -0.02  -0.00    -0.01  -0.12  -0.03     0.03   0.06   0.01
   4   6    -0.01  -0.01  -0.00    -0.07  -0.10  -0.05     0.02   0.04   0.00
   5   8     0.02  -0.01   0.00     0.15  -0.20  -0.00    -0.03   0.08  -0.01
   6   6    -0.02  -0.01  -0.00    -0.17  -0.05  -0.08    -0.02   0.00   0.02
   7   6     0.00   0.02  -0.01    -0.16   0.13   0.04     0.00  -0.05  -0.04
   8   1     0.00   0.01  -0.00    -0.06   0.06   0.01     0.00  -0.03  -0.01
   9   6     0.02   0.02  -0.00    -0.14   0.21   0.07     0.17  -0.04  -0.02
  10   8     0.04   0.04   0.02    -0.10   0.37   0.13     0.26   0.07   0.07
  11   8     0.02   0.04  -0.00    -0.11   0.25  -0.08     0.20  -0.04   0.02
  12   6    -0.03   0.03   0.03     0.10   0.18   0.07    -0.23  -0.04   0.00
  13   6    -0.01   0.00   0.03    -0.00   0.03   0.07    -0.01   0.01  -0.01
  14  16     0.01  -0.01  -0.08     0.04  -0.26   0.03    -0.14  -0.01  -0.16
  15  15     0.01  -0.05  -0.04     0.05  -0.10  -0.05    -0.02  -0.16  -0.02
  16  16    -0.08  -0.04   0.02    -0.05  -0.01  -0.01    -0.09  -0.07  -0.00
  17   8     0.06   0.02  -0.08     0.21   0.15  -0.19     0.18   0.12  -0.24
  18   6    -0.02   0.03  -0.00    -0.03   0.01   0.05    -0.08   0.08   0.02
  19   8    -0.02   0.01   0.20    -0.05  -0.02   0.06    -0.08  -0.03   0.45
  20   6     0.01  -0.01  -0.04     0.10   0.05  -0.04     0.09  -0.01  -0.05
  21   1     0.00  -0.00   0.00     0.02  -0.07  -0.03    -0.01   0.00   0.00
  22   1    -0.00  -0.00   0.01     0.05  -0.04  -0.02    -0.01   0.01   0.00
  23   1     0.01  -0.00   0.00     0.00  -0.06  -0.00    -0.02   0.01   0.01
  24   1    -0.00  -0.00  -0.01     0.04  -0.03   0.03    -0.01   0.02   0.01
  25   1     0.01  -0.00  -0.00     0.01  -0.06   0.02    -0.01   0.01   0.01
  26   1    -0.00  -0.01   0.00    -0.04  -0.03  -0.01    -0.01   0.01   0.02
  27   1    -0.01  -0.00  -0.00    -0.05  -0.03  -0.03    -0.02  -0.00   0.00
  28   1    -0.01   0.02   0.01     0.06   0.01   0.05    -0.15   0.09  -0.04
  29   1    -0.01  -0.00   0.01     0.06   0.11   0.02    -0.14  -0.13   0.04
  30   1     0.01  -0.01   0.01    -0.05   0.06  -0.01     0.13  -0.19   0.02
  31   1     0.00   0.01   0.00    -0.04  -0.07   0.02     0.12   0.21  -0.03
  32   1    -0.02  -0.00   0.01     0.07  -0.00   0.05    -0.22   0.00  -0.00
  33   1    -0.04   0.06  -0.00    -0.09   0.11  -0.00    -0.10   0.07  -0.02
  34   1    -0.03  -0.03   0.05    -0.06  -0.09   0.12    -0.03  -0.02   0.08
  35   1     0.03  -0.01  -0.02     0.09  -0.04  -0.02     0.01   0.01   0.00
  36   1     0.02   0.07   0.53     0.06  -0.02  -0.09     0.05  -0.06  -0.17
  37   1     0.43   0.16  -0.33    -0.02  -0.00   0.03    -0.03  -0.09   0.04
  38   1    -0.43  -0.24  -0.26     0.09   0.08   0.01     0.09   0.15  -0.00
                     22                     23                     24
                        a                      a                      a 
 Frequencies --   216.3875               243.6735               274.6815
 Red. masses --     7.2781                12.3419                15.1572
 Frc consts  --     0.0000                 0.0000                 0.0000
 IR Inten    --    21.4388                 7.8708                21.3626
 Raman Activ --     0.0000                 0.0000                 0.0000
 Depolar     --     0.0000                 0.0000                 0.0000
 Atom AN      X      Y      Z        X      Y      Z        X      Y      Z
   1   6    -0.00   0.03   0.00     0.01   0.02   0.01     0.04  -0.07  -0.02
   2   6     0.03   0.14  -0.29    -0.01  -0.06   0.10     0.04  -0.03   0.02
   3   8     0.02  -0.03   0.19    -0.02  -0.00  -0.08    -0.02  -0.03  -0.00
   4   6     0.00  -0.04   0.13     0.03   0.01  -0.04    -0.08  -0.00   0.01
   5   8    -0.02  -0.32   0.17    -0.02   0.11  -0.07     0.04   0.02   0.03
   6   6     0.08   0.10  -0.14     0.07  -0.04   0.07    -0.19   0.00  -0.03
   7   6     0.01   0.04  -0.13     0.13  -0.00   0.03    -0.07   0.08  -0.15
   8   1    -0.02   0.02  -0.04     0.06   0.00   0.01    -0.01   0.02  -0.04
   9   6    -0.01   0.02  -0.05    -0.02  -0.01  -0.02    -0.00   0.08  -0.07
  10   8    -0.03  -0.07  -0.00    -0.12  -0.22  -0.13     0.04   0.16   0.04
  11   8    -0.03   0.03  -0.00    -0.10   0.08  -0.02     0.05   0.00  -0.00
  12   6     0.07   0.03   0.03     0.14   0.07   0.03     0.07  -0.00   0.04
  13   6     0.01   0.07   0.04     0.02   0.02   0.03    -0.00   0.07   0.06
  14  16     0.01   0.02  -0.09     0.13   0.13  -0.20     0.14  -0.28  -0.06
  15  15     0.00   0.02  -0.01     0.02   0.06  -0.06     0.10   0.31  -0.07
  16  16    -0.03  -0.06   0.04    -0.04  -0.16   0.07     0.09  -0.13   0.13
  17   8    -0.04  -0.04  -0.05    -0.10  -0.11  -0.11    -0.32  -0.25   0.09
  18   6    -0.08   0.03  -0.01    -0.19   0.09  -0.03    -0.17   0.06  -0.07
  19   8     0.02   0.02   0.23     0.08   0.07   0.51     0.28   0.13   0.04
  20   6    -0.02  -0.03   0.02    -0.04  -0.07  -0.02    -0.11  -0.08   0.01
  21   1     0.10   0.21   0.28    -0.04  -0.07  -0.11     0.01  -0.04  -0.03
  22   1    -0.13  -0.32   0.08     0.05   0.15  -0.03     0.03  -0.01  -0.01
  23   1     0.03   0.12  -0.31     0.00  -0.04   0.14    -0.01  -0.03   0.01
  24   1    -0.07  -0.03  -0.22     0.03   0.01   0.08     0.02  -0.01   0.01
  25   1     0.10   0.18  -0.13    -0.04  -0.07   0.04     0.01  -0.02   0.01
  26   1     0.03   0.02  -0.11     0.02  -0.02   0.05    -0.04  -0.01   0.04
  27   1     0.06   0.10  -0.02     0.00  -0.03   0.01    -0.11  -0.00  -0.02
  28   1     0.04  -0.02   0.02     0.09  -0.04   0.03     0.02   0.00   0.02
  29   1     0.04   0.03  -0.00     0.08   0.09  -0.01     0.02  -0.00   0.01
  30   1    -0.04   0.09   0.01    -0.12   0.20   0.00     0.12  -0.18  -0.01
  31   1    -0.03  -0.04   0.02    -0.11  -0.20   0.02     0.11   0.25   0.05
  32   1     0.07   0.03  -0.00     0.23   0.01   0.01    -0.27   0.02   0.00
  33   1    -0.03  -0.00  -0.01    -0.07   0.03  -0.02    -0.00   0.00  -0.00
  34   1    -0.01   0.02   0.01    -0.02   0.05   0.03    -0.01   0.07  -0.03
  35   1    -0.04   0.02   0.00    -0.09   0.04  -0.02    -0.11   0.04  -0.05
  36   1    -0.01  -0.01  -0.05    -0.04  -0.02  -0.11    -0.10   0.04  -0.01
  37   1    -0.02  -0.06   0.02    -0.02  -0.14   0.01    -0.04  -0.09   0.01
  38   1     0.01   0.03   0.00    -0.00   0.07  -0.02    -0.04  -0.07   0.01
                     25                     26                     27
                        a                      a                      a 
 Frequencies --   293.2618               273.2954               274.3898
 Red. masses --    12.7773                 8.2872                 8.0427
 Frc consts  --     0.0000                 0.0000                 0.0000
 IR Inten    --     2.5056                13.8107                 7.2943
 Raman Activ --     0.0000                 0.0000                 0.0000
 Depolar     --     0.0000                 0.0000                 0.0000
 Atom AN      X      Y      Z        X      Y      Z        X      Y      Z
   1   6    -0.01  -0.02  -0.01     0.00  -0.00  -0.00    -0.00  -0.00  -0.01
   2   6     0.00   0.02   0.00    -0.01  -0.06   0.23    -0.03  -0.10   0.27
   3   8     0.00   0.01   0.02    -0.01   0.05  -0.07    -0.03   0.03  -0.11
   4   6    -0.05   0.02   0.03    -0.02   0.02  -0.10     0.02   0.00  -0.13
   5   8    -0.01   0.10   0.04     0.03   0.15  -0.11     0.02   0.15  -0.16
   6   6    -0.18  -0.00  -0.02    -0.11  -0.07   0.04     0.00  -0.08   0.07
   7   6     0.00  -0.01  -0.28    -0.04  -0.03   0.01     0.06  -0.00   0.08
   8   1     0.01  -0.05  -0.08    -0.01  -0.02   0.00     0.04   0.01   0.03
   9   6     0.20   0.02  -0.20     0.07  -0.03   0.00    -0.04   0.01   0.03
  10   8     0.24  -0.10   0.04     0.14   0.13   0.03    -0.11  -0.11  -0.06
  11   8     0.16   0.12  -0.06     0.09  -0.05   0.04    -0.06   0.07  -0.04
  12   6    -0.09   0.05   0.17    -0.23  -0.04  -0.03     0.17   0.06   0.01
  13   6     0.01   0.18   0.18    -0.00  -0.03  -0.05     0.00   0.01   0.02
  14  16    -0.03  -0.30  -0.15    -0.06  -0.03   0.16     0.10  -0.00  -0.15
  15  15    -0.07  -0.03  -0.01     0.06   0.10   0.04    -0.04  -0.06  -0.06
  16  16    -0.07   0.03  -0.07     0.13  -0.01   0.08    -0.11  -0.00  -0.08
  17   8    -0.08  -0.04   0.30    -0.03  -0.02  -0.21    -0.01  -0.00   0.22
  18   6     0.19  -0.09   0.05    -0.18   0.08  -0.07     0.17  -0.08   0.06
  19   8    -0.15   0.03   0.02     0.18  -0.02  -0.13    -0.15   0.04   0.12
  20   6     0.01   0.12  -0.01    -0.02  -0.12   0.00     0.01   0.11  -0.01
  21   1    -0.00  -0.03  -0.03    -0.01   0.19   0.18    -0.01   0.23   0.22
  22   1     0.01   0.02  -0.01    -0.00  -0.27   0.02    -0.00  -0.32   0.03
  23   1    -0.01  -0.02   0.03     0.02   0.10  -0.29     0.03   0.12  -0.34
  24   1    -0.00   0.00  -0.00     0.04   0.02   0.13     0.05   0.02   0.17
  25   1     0.00   0.01   0.00    -0.05  -0.09   0.09    -0.07  -0.12   0.11
  26   1    -0.04  -0.01   0.06    -0.03  -0.01   0.07     0.00  -0.02   0.07
  27   1    -0.13   0.00  -0.02    -0.07  -0.06  -0.00    -0.02  -0.07   0.01
  28   1    -0.06   0.06   0.04    -0.12   0.05  -0.04     0.09  -0.03   0.03
  29   1    -0.05  -0.03   0.06    -0.11  -0.09   0.02     0.09   0.08  -0.02
  30   1    -0.10   0.25   0.11    -0.10   0.18   0.05     0.07  -0.14  -0.04
  31   1    -0.09  -0.12   0.04    -0.09  -0.22  -0.07     0.06   0.14   0.04
  32   1     0.23   0.08  -0.00     0.26  -0.00  -0.02    -0.18  -0.01   0.02
  33   1     0.12  -0.05   0.04    -0.09   0.04  -0.03     0.09  -0.03   0.03
  34   1     0.03  -0.03  -0.06    -0.03   0.03   0.03     0.03  -0.03  -0.03
  35   1     0.06  -0.03   0.00    -0.07   0.03  -0.02     0.06  -0.03   0.01
  36   1     0.04   0.00  -0.01    -0.04   0.01   0.02     0.03   0.00  -0.01
  37   1     0.00   0.05  -0.00    -0.01  -0.04   0.00     0.01   0.04  -0.01
  38   1     0.01   0.06  -0.00    -0.01  -0.08   0.01     0.00   0.07  -0.01
                     28                     29                     30
                        a                      a                      a 
 Frequencies --   323.0023               364.0945               376.8679
 Red. masses --    14.8122                14.5583                16.1147
 Frc consts  --     0.0000                 0.0000                 0.0000
 IR Inten    --    19.6683                 8.8782                16.4975
 Raman Activ --     0.0000                 0.0000                 0.0000
 Depolar     --     0.0000                 0.0000                 0.0000
 Atom AN      X      Y      Z        X      Y      Z        X      Y      Z
   1   6     0.01  -0.03  -0.01     0.18  -0.26  -0.05     0.09  -0.10  -0.01
   2   6     0.01  -0.01   0.04     0.17  -0.14   0.08     0.06  -0.14   0.05
   3   8    -0.01   0.00  -0.00    -0.29  -0.10  -0.02    -0.17  -0.11  -0.04
   4   6    -0.05   0.02   0.01    -0.18   0.04   0.11     0.02   0.01   0.11
   5   8    -0.01   0.11   0.02    -0.02   0.25   0.16    -0.07   0.23   0.08
   6   6    -0.13  -0.01  -0.01     0.02   0.23  -0.15     0.31   0.16  -0.07
   7   6     0.02  -0.02  -0.22     0.04   0.18  -0.25    -0.05  -0.13   0.12
   8   1    -0.00  -0.07  -0.07    -0.01   0.06  -0.07    -0.06  -0.05   0.02
   9   6     0.05  -0.01  -0.21    -0.06   0.02  -0.08     0.04  -0.02   0.01
  10   8    -0.05  -0.42  -0.06    -0.04   0.01   0.09     0.05   0.01  -0.03
  11   8    -0.03   0.10  -0.12    -0.01  -0.18   0.11     0.02   0.09  -0.10
  12   6     0.22   0.04   0.16    -0.06  -0.14  -0.07     0.02   0.05   0.07
  13   6     0.02   0.19   0.20    -0.01  -0.05  -0.09    -0.00   0.06   0.09
  14  16    -0.15   0.07   0.26     0.30   0.19   0.00    -0.37  -0.14   0.07
  15  15    -0.05  -0.09   0.16    -0.08  -0.11   0.11     0.04   0.18  -0.20
  16  16     0.15   0.06   0.02     0.03   0.03  -0.00    -0.17  -0.09  -0.12
  17   8     0.12   0.11  -0.30    -0.00  -0.02  -0.01     0.03   0.15   0.06
  18   6    -0.13   0.06  -0.05    -0.01   0.01  -0.00     0.08  -0.02   0.03
  19   8     0.00  -0.13  -0.15    -0.14  -0.02   0.05     0.25  -0.00   0.02
  20   6     0.04  -0.09  -0.00     0.01   0.06  -0.01    -0.00  -0.16   0.02
  21   1     0.00   0.00   0.00     0.06  -0.09  -0.02     0.02  -0.02  -0.00
  22   1     0.01  -0.02  -0.00     0.10  -0.12  -0.03     0.04  -0.05  -0.01
  23   1    -0.00  -0.00  -0.02    -0.02  -0.07  -0.04     0.01  -0.02  -0.02
  24   1     0.01   0.00   0.02     0.08  -0.04   0.05     0.04  -0.04   0.04
  25   1    -0.01  -0.02   0.02     0.04  -0.09   0.03     0.01  -0.08   0.02
  26   1    -0.03  -0.01   0.05     0.04   0.01  -0.14     0.06   0.06  -0.25
  27   1    -0.09   0.00  -0.01     0.03   0.18  -0.02     0.26   0.17   0.04
  28   1     0.11  -0.05   0.08    -0.03  -0.03  -0.04     0.01   0.01   0.03
  29   1     0.11   0.08   0.02    -0.03  -0.07  -0.02     0.01   0.03   0.02
  30   1     0.04  -0.02   0.04    -0.01  -0.00  -0.01    -0.00   0.02   0.03
  31   1     0.04   0.17   0.13    -0.01  -0.02  -0.03    -0.00   0.02   0.03
  32   1    -0.13   0.08   0.00     0.01  -0.01  -0.04    -0.00   0.02   0.01
  33   1    -0.10   0.03  -0.04    -0.00   0.01   0.00     0.03  -0.02   0.01
  34   1    -0.03   0.01   0.05    -0.00   0.00   0.01     0.00  -0.02  -0.02
  35   1    -0.03   0.01   0.01    -0.01   0.00  -0.01     0.05  -0.02   0.03
  36   1     0.02  -0.02   0.03     0.03  -0.01  -0.00    -0.05   0.00  -0.00
  37   1     0.01   0.01  -0.01     0.01   0.03  -0.01    -0.00  -0.09   0.01
  38   1     0.01  -0.05   0.00     0.01   0.05  -0.01    -0.01  -0.08   0.01
                     31                     32                     33
                        a                      a                      a 
 Frequencies --   400.2907               435.6503               446.2339
 Red. masses --    19.0945                25.8336                13.1061
 Frc consts  --     0.0000                 0.0000                 0.0000
 IR Inten    --    22.9200               120.6078                10.1915
 Raman Activ --     0.0000                 0.0000                 0.0000
 Depolar     --     0.0000                 0.0000                 0.0000
 Atom AN      X      Y      Z        X      Y      Z        X      Y      Z
   1   6     0.01  -0.00   0.01    -0.02   0.03   0.01    -0.09   0.12   0.04
   2   6    -0.01  -0.08   0.01    -0.04  -0.06  -0.00    -0.13  -0.19  -0.03
   3   8    -0.02  -0.06  -0.02     0.04  -0.05  -0.01     0.21  -0.15  -0.03
   4   6     0.07  -0.01   0.05     0.06  -0.01   0.02     0.11  -0.07   0.03
   5   8    -0.04   0.10   0.02    -0.02   0.03  -0.00    -0.01   0.05  -0.01
   6   6     0.20   0.04  -0.00     0.10   0.00   0.02     0.08  -0.01   0.02
   7   6    -0.03  -0.11   0.12     0.03  -0.03   0.02    -0.01  -0.02  -0.02
   8   1    -0.01  -0.02   0.03     0.04   0.03   0.02     0.01  -0.02  -0.01
   9   6     0.01  -0.02   0.03    -0.04  -0.01   0.02    -0.18   0.00  -0.16
  10   8     0.03   0.07  -0.02    -0.00   0.09   0.02    -0.06   0.27   0.14
  11   8     0.00   0.07  -0.08    -0.03   0.03  -0.04    -0.09  -0.16  -0.40
  12   6     0.01   0.04   0.05     0.01   0.01   0.02    -0.06  -0.37   0.12
  13   6     0.00   0.03   0.06     0.00   0.01   0.02    -0.00   0.16   0.18
  14  16    -0.21  -0.12  -0.26     0.11  -0.14  -0.52     0.17   0.18   0.10
  15  15     0.21  -0.17   0.11    -0.40   0.08   0.39     0.03  -0.02  -0.04
  16  16     0.22   0.13   0.29     0.19   0.07   0.17    -0.05  -0.02  -0.06
  17   8    -0.05  -0.38  -0.12    -0.08   0.35  -0.00     0.01  -0.03   0.01
  18   6    -0.16   0.03  -0.07    -0.03   0.01  -0.04     0.02  -0.00   0.01
  19   8    -0.29   0.10  -0.15     0.07  -0.19  -0.11     0.00   0.02   0.04
  20   6    -0.05   0.30  -0.05     0.06  -0.22   0.03    -0.01   0.02   0.00
  21   1    -0.01   0.01   0.01    -0.02   0.03   0.01    -0.08   0.10   0.03
  22   1     0.00   0.00   0.00    -0.02   0.02   0.01    -0.06   0.08   0.02
  23   1     0.02   0.00  -0.01     0.03   0.01   0.00     0.10   0.05   0.01
  24   1     0.01  -0.02   0.02    -0.01  -0.01   0.01    -0.03  -0.03   0.02
  25   1    -0.01  -0.04   0.01    -0.02  -0.02   0.00    -0.06  -0.06   0.00
  26   1     0.03   0.03  -0.12     0.02   0.01  -0.03     0.02   0.00  -0.02
  27   1     0.15   0.06   0.03     0.05   0.01   0.01     0.03   0.02   0.01
  28   1     0.01   0.01   0.02     0.01  -0.00   0.01    -0.04  -0.07   0.03
  29   1     0.01   0.02   0.02     0.01   0.01   0.01    -0.03  -0.10   0.06
  30   1     0.00   0.01   0.02     0.00   0.00   0.01    -0.00   0.13   0.16
  31   1     0.00   0.02   0.02     0.00   0.01   0.01     0.00   0.11   0.14
  32   1    -0.01   0.01   0.01    -0.00   0.01   0.00     0.01   0.12  -0.14
  33   1    -0.06   0.04  -0.02     0.00  -0.01  -0.01     0.01   0.00   0.00
  34   1     0.01   0.05   0.05    -0.05  -0.03  -0.05     0.01   0.00   0.01
  35   1    -0.11   0.04  -0.06     0.05  -0.02   0.02     0.00   0.00  -0.00
  36   1     0.05   0.03   0.01    -0.00  -0.05   0.02    -0.00   0.00  -0.00
  37   1    -0.01   0.15  -0.02     0.01  -0.05   0.01    -0.00  -0.00   0.00
  38   1     0.00   0.10  -0.01     0.01  -0.09   0.01    -0.00   0.01  -0.00
                     34                     35                     36
                        a                      a                      a 
 Frequencies --   462.4000               573.5376               635.3845
 Red. masses --    11.4132                12.1150                18.5706
 Frc consts  --     0.0000                 0.0000                 0.0000
 IR Inten    --     4.5475                23.8332                97.5499
 Raman Activ --     0.0000                 0.0000                 0.0000
 Depolar     --     0.0000                 0.0000                 0.0000
 Atom AN      X      Y      Z        X      Y      Z        X      Y      Z
   1   6     0.14  -0.18  -0.06     0.05  -0.03  -0.00     0.01  -0.02   0.00
   2   6     0.21   0.32   0.05     0.02  -0.05  -0.01    -0.03  -0.16  -0.05
   3   8    -0.37   0.27  -0.02    -0.18   0.01  -0.16     0.01  -0.01  -0.17
   4   6    -0.06   0.11  -0.11     0.43   0.12   0.06     0.13   0.16   0.05
   5   8     0.00  -0.23  -0.07    -0.16  -0.21  -0.04    -0.06  -0.19   0.06
   6   6     0.05  -0.04   0.16     0.20   0.12   0.24    -0.09   0.26   0.05
   7   6     0.01  -0.10   0.23     0.19  -0.04  -0.22    -0.10   0.18   0.08
   8   1     0.04  -0.02   0.07     0.09  -0.13  -0.07    -0.06   0.09   0.02
   9   6    -0.03  -0.07   0.01    -0.09   0.11  -0.34     0.05   0.05   0.16
  10   8     0.00   0.04  -0.04     0.01   0.16   0.22    -0.06  -0.15  -0.12
  11   8     0.02  -0.04  -0.31    -0.16  -0.04   0.21     0.18  -0.00  -0.08
  12   6    -0.03  -0.21   0.08    -0.00   0.07  -0.02     0.01  -0.09  -0.01
  13   6    -0.00   0.10   0.13     0.01  -0.02  -0.05    -0.01  -0.00  -0.00
  14  16     0.04   0.04  -0.07    -0.16  -0.05   0.03    -0.01  -0.00   0.05
  15  15    -0.02   0.01   0.02     0.02   0.01   0.00     0.03   0.06  -0.44
  16  16     0.01   0.00   0.02    -0.01  -0.00  -0.02     0.20   0.09   0.29
  17   8    -0.01   0.01   0.00     0.00  -0.00  -0.00    -0.11   0.15   0.08
  18   6    -0.00   0.00  -0.00    -0.00   0.00   0.00    -0.03   0.00  -0.03
  19   8     0.00  -0.00  -0.01    -0.01  -0.01  -0.00    -0.25  -0.22   0.05
  20   6     0.00  -0.00   0.00     0.00  -0.00  -0.00     0.05  -0.14   0.02
  21   1     0.13  -0.16  -0.05     0.02  -0.01   0.00    -0.01   0.03   0.02
  22   1     0.11  -0.13  -0.04     0.01  -0.02  -0.00    -0.03   0.01   0.01
  23   1    -0.16  -0.08  -0.02     0.01  -0.01  -0.01     0.07   0.00   0.00
  24   1     0.05   0.06  -0.02     0.03   0.01   0.04     0.02   0.01   0.05
  25   1     0.09   0.08   0.00    -0.01  -0.07   0.00    -0.04  -0.10   0.00
  26   1     0.00   0.01   0.09     0.02   0.11   0.26    -0.05   0.12   0.08
  27   1     0.02  -0.10   0.03    -0.10  -0.06   0.02    -0.07   0.04   0.00
  28   1    -0.03  -0.02   0.03     0.03  -0.04  -0.01    -0.04   0.04  -0.00
  29   1    -0.02  -0.06   0.04     0.02   0.05  -0.02    -0.03  -0.08   0.01
  30   1    -0.00   0.08   0.10     0.01  -0.03  -0.04    -0.01   0.02   0.01
  31   1    -0.00   0.07   0.09     0.00  -0.02  -0.04    -0.01   0.00   0.03
  32   1     0.01   0.08  -0.08    -0.00  -0.02   0.03     0.00   0.01  -0.04
  33   1     0.00  -0.00  -0.00    -0.00   0.00  -0.00     0.01  -0.01  -0.00
  34   1    -0.00  -0.00  -0.00     0.00   0.00   0.00    -0.04  -0.02  -0.05
  35   1     0.00  -0.00  -0.00    -0.00   0.00   0.00     0.02  -0.01   0.01
  36   1    -0.00   0.00   0.00     0.00  -0.00   0.00     0.07  -0.09   0.02
  37   1     0.00   0.00  -0.00     0.00   0.00  -0.00     0.02   0.00   0.00
  38   1    -0.00  -0.00   0.00    -0.00  -0.00  -0.00     0.02  -0.00   0.00
                     37                     38                     39
                        a                      a                      a 
 Frequencies --   640.0991               676.6933               706.6373
 Red. masses --    17.2189                12.0065                13.4654
 Frc consts  --     0.0000                 0.0000                 0.0000
 IR Inten    --   163.9141                19.1627                10.8082
 Raman Activ --     0.0000                 0.0000                 0.0000
 Depolar     --     0.0000                 0.0000                 0.0000
 Atom AN      X      Y      Z        X      Y      Z        X      Y      Z
   1   6     0.02  -0.02   0.01     0.02  -0.00  -0.00     0.00  -0.00   0.00
   2   6    -0.02  -0.16  -0.06     0.02   0.04   0.04     0.00  -0.01  -0.02
   3   8     0.00  -0.01  -0.19    -0.21  -0.06   0.16    -0.02   0.02  -0.09
   4   6     0.17   0.18   0.07     0.48  -0.08   0.11     0.11   0.06   0.04
   5   8    -0.07  -0.20   0.07    -0.16   0.17  -0.05    -0.04  -0.06   0.02
   6   6    -0.11   0.27   0.05    -0.05  -0.12  -0.24    -0.20   0.03  -0.01
   7   6    -0.17   0.12   0.06    -0.03  -0.09  -0.24    -0.49  -0.42   0.14
   8   1    -0.06   0.11   0.03    -0.08   0.13  -0.06    -0.10  -0.21   0.02
   9   6     0.06  -0.02   0.21     0.02  -0.31   0.42     0.04  -0.09  -0.25
  10   8    -0.04  -0.15  -0.14     0.08   0.14  -0.12     0.15  -0.02   0.06
  11   8     0.17   0.02  -0.09    -0.13   0.06  -0.14    -0.07  -0.03   0.08
  12   6     0.01  -0.04  -0.00    -0.01   0.06   0.02    -0.01   0.20   0.03
  13   6    -0.00  -0.00   0.01     0.01   0.01   0.03     0.01   0.02   0.03
  14  16     0.02  -0.02  -0.07     0.06   0.06   0.06     0.33   0.20  -0.01
  15  15    -0.05  -0.08   0.39    -0.01  -0.03  -0.05    -0.03  -0.04  -0.07
  16  16    -0.17  -0.08  -0.25     0.02   0.01   0.03     0.03   0.01   0.04
  17   8     0.10  -0.13  -0.08    -0.01   0.02   0.02    -0.02   0.03   0.02
  18   6     0.03  -0.00   0.03    -0.01  -0.00  -0.01    -0.00   0.00  -0.01
  19   8     0.26   0.22  -0.05    -0.01   0.00   0.01     0.01   0.01   0.01
  20   6    -0.05   0.14  -0.02     0.00  -0.01   0.00     0.00   0.00   0.00
  21   1    -0.01   0.03   0.02     0.01  -0.02  -0.02     0.01  -0.00   0.01
  22   1    -0.03   0.01   0.01     0.04  -0.02  -0.01    -0.01  -0.00   0.00
  23   1     0.07   0.00   0.00    -0.04  -0.01  -0.00     0.00  -0.00   0.00
  24   1     0.02   0.01   0.06    -0.01  -0.04  -0.06     0.01   0.02   0.03
  25   1    -0.04  -0.11   0.00     0.04   0.07  -0.01    -0.02  -0.04   0.00
  26   1    -0.07   0.15   0.08    -0.06   0.05   0.10    -0.17   0.15  -0.18
  27   1    -0.07   0.04   0.00    -0.16  -0.06  -0.10     0.11   0.05   0.04
  28   1    -0.03   0.05  -0.00     0.03  -0.03   0.02     0.04  -0.01   0.01
  29   1    -0.03  -0.06   0.01     0.03   0.07  -0.00     0.03   0.09  -0.02
  30   1    -0.01   0.02   0.01     0.01  -0.00   0.01     0.01  -0.03  -0.02
  31   1    -0.01   0.00   0.02     0.01   0.01  -0.00     0.01  -0.02  -0.05
  32   1     0.00   0.01  -0.02     0.00  -0.00   0.02     0.01  -0.03   0.09
  33   1    -0.01   0.01   0.00     0.00  -0.00   0.00     0.01  -0.00   0.00
  34   1     0.03   0.01   0.05    -0.01  -0.00  -0.01    -0.01  -0.00  -0.01
  35   1    -0.02   0.01  -0.01     0.00  -0.00   0.00     0.01  -0.00   0.00
  36   1    -0.07   0.09  -0.01     0.00  -0.00   0.00    -0.00   0.00  -0.00
  37   1    -0.01  -0.00  -0.00     0.00  -0.00   0.00    -0.00  -0.00   0.00
  38   1    -0.02  -0.00  -0.00    -0.00   0.00   0.00    -0.00   0.00  -0.00
                     40                     41                     42
                        a                      a                      a 
 Frequencies --   727.7602               737.6368               772.8353
 Red. masses --    22.7771                11.9994                23.1885
 Frc consts  --     0.0000                 0.0000                 0.0000
 IR Inten    --   330.5398                22.2076               248.1117
 Raman Activ --     0.0000                 0.0000                 0.0000
 Depolar     --     0.0000                 0.0000                 0.0000
 Atom AN      X      Y      Z        X      Y      Z        X      Y      Z
   1   6     0.00  -0.00   0.00    -0.01  -0.01  -0.00     0.00   0.00   0.00
   2   6    -0.00  -0.01  -0.00    -0.01  -0.05  -0.07    -0.00   0.00   0.00
   3   8    -0.01  -0.00  -0.01     0.15   0.09  -0.22    -0.00  -0.00   0.01
   4   6     0.02   0.01   0.01    -0.38   0.17  -0.01     0.00  -0.01  -0.00
   5   8    -0.01  -0.01   0.01     0.08  -0.15   0.15     0.00   0.01  -0.01
   6   6    -0.03   0.01  -0.01     0.01   0.16   0.12     0.02  -0.00  -0.00
   7   6    -0.05  -0.03   0.00     0.18  -0.12  -0.18     0.01   0.01   0.00
   8   1    -0.01   0.01   0.00     0.06   0.00  -0.04    -0.00  -0.01  -0.00
   9   6     0.02  -0.03   0.02     0.04  -0.42   0.21    -0.00   0.01  -0.02
  10   8     0.02   0.01  -0.02     0.25   0.17  -0.05    -0.01   0.00   0.01
  11   8    -0.01  -0.00  -0.01    -0.31   0.03  -0.07     0.01   0.00   0.01
  12   6    -0.00   0.02   0.00    -0.07   0.06   0.01     0.00  -0.01  -0.00
  13   6    -0.00   0.00   0.00     0.01   0.01   0.02    -0.00   0.00  -0.00
  14  16     0.04   0.01  -0.05    -0.03   0.02   0.04    -0.01  -0.00   0.03
  15  15     0.15   0.62   0.22    -0.01  -0.01  -0.04    -0.63   0.12  -0.28
  16  16    -0.12  -0.06  -0.18     0.01   0.00   0.02     0.16   0.05   0.21
  17   8     0.17  -0.29  -0.12    -0.00  -0.00   0.01     0.28  -0.37  -0.18
  18   6     0.10  -0.01   0.08    -0.00  -0.00   0.00     0.26  -0.03   0.21
  19   8    -0.37  -0.32   0.01    -0.01   0.00   0.01     0.14   0.07   0.01
  20   6     0.04  -0.18   0.02     0.00  -0.00  -0.00    -0.03   0.07  -0.01
  21   1    -0.00   0.00   0.00     0.02   0.01   0.03    -0.00   0.00  -0.00
  22   1    -0.00  -0.00   0.00    -0.06   0.01   0.02     0.00   0.00  -0.00
  23   1     0.00  -0.00  -0.00     0.04  -0.00   0.01    -0.00   0.00  -0.00
  24   1    -0.00   0.00   0.00     0.05   0.07   0.10    -0.00  -0.00  -0.00
  25   1    -0.00  -0.01   0.00    -0.08  -0.11   0.02     0.00   0.01  -0.00
  26   1    -0.02   0.02  -0.01     0.04  -0.01   0.03     0.01  -0.01   0.01
  27   1     0.00  -0.00  -0.00    -0.04   0.08   0.03    -0.01  -0.00  -0.00
  28   1     0.01  -0.01   0.00     0.09  -0.14   0.05    -0.00   0.00   0.00
  29   1     0.01   0.01  -0.00     0.08   0.16  -0.05    -0.00  -0.00  -0.00
  30   1     0.00  -0.00   0.00     0.03  -0.02   0.05     0.00  -0.00   0.00
  31   1     0.00   0.00  -0.01     0.03   0.01  -0.05    -0.00  -0.00  -0.00
  32   1     0.00  -0.00   0.00     0.01  -0.00   0.02     0.00   0.00   0.00
  33   1    -0.01   0.02   0.01     0.00   0.00   0.00     0.01   0.02   0.03
  34   1     0.08   0.03   0.10    -0.00  -0.00  -0.00     0.14   0.03   0.16
  35   1    -0.02   0.02   0.00     0.00  -0.00   0.00     0.00   0.02   0.02
  36   1     0.11  -0.14   0.02     0.00  -0.00  -0.00    -0.04   0.05  -0.01
  37   1     0.02   0.02  -0.00     0.00  -0.00   0.00    -0.01  -0.01   0.00
  38   1     0.03   0.01   0.00     0.00  -0.00  -0.00    -0.01  -0.00   0.00
                     43                     44                     45
                        a                      a                      a 
 Frequencies --   809.7653               820.0511               877.6408
 Red. masses --     4.3451                 4.2344                 8.9736
 Frc consts  --     0.0000                 0.0000                 0.0000
 IR Inten    --    16.6591                15.4334                17.9521
 Raman Activ --     0.0000                 0.0000                 0.0000
 Depolar     --     0.0000                 0.0000                 0.0000
 Atom AN      X      Y      Z        X      Y      Z        X      Y      Z
   1   6     0.05  -0.08   0.05    -0.02   0.05  -0.03     0.15  -0.13  -0.13
   2   6    -0.06  -0.25   0.15     0.03   0.13  -0.08    -0.08  -0.27  -0.19
   3   8    -0.03   0.07   0.15    -0.02  -0.07  -0.01    -0.11   0.22   0.48
   4   6    -0.05   0.06  -0.11     0.13  -0.07   0.06    -0.09   0.04  -0.15
   5   8     0.04  -0.01  -0.14    -0.04   0.03   0.03     0.06   0.07  -0.18
   6   6    -0.00   0.18   0.05    -0.06  -0.09  -0.07     0.09   0.13  -0.06
   7   6    -0.04   0.07   0.10    -0.03   0.15   0.12    -0.04  -0.02   0.11
   8   1    -0.01   0.01   0.03    -0.02   0.05   0.03    -0.04   0.01   0.02
   9   6     0.07  -0.01  -0.06     0.09   0.15  -0.06     0.01  -0.05  -0.08
  10   8     0.11  -0.04  -0.01     0.05  -0.07  -0.00     0.07  -0.01   0.01
  11   8    -0.06   0.05   0.03     0.00   0.12   0.07    -0.06  -0.02   0.01
  12   6    -0.13  -0.09  -0.00    -0.22  -0.20  -0.01     0.01   0.02  -0.00
  13   6    -0.04  -0.02  -0.03    -0.08  -0.05  -0.07     0.02   0.01   0.01
  14  16    -0.01  -0.01  -0.01    -0.02  -0.03  -0.01     0.00   0.01  -0.01
  15  15     0.00  -0.00   0.00    -0.00  -0.00   0.01     0.00   0.00   0.00
  16  16    -0.00   0.00  -0.00     0.00   0.00  -0.00    -0.00  -0.00  -0.00
  17   8    -0.00   0.00   0.00    -0.00   0.00  -0.01     0.00   0.00   0.00
  18   6    -0.00  -0.00  -0.00     0.00  -0.00   0.00    -0.00   0.00  -0.00
  19   8     0.00   0.00  -0.00     0.01   0.00  -0.00    -0.00   0.00   0.00
  20   6    -0.00   0.00   0.00    -0.00   0.00  -0.01     0.00   0.00  -0.00
  21   1    -0.29   0.11  -0.12     0.18  -0.07   0.07     0.18  -0.00   0.12
  22   1     0.27   0.03  -0.10    -0.16  -0.02   0.06    -0.27   0.08   0.09
  23   1     0.13   0.03  -0.09    -0.07  -0.02   0.06     0.27  -0.05   0.10
  24   1    -0.31  -0.11  -0.26     0.18   0.04   0.13     0.15  -0.14   0.03
  25   1     0.31   0.16  -0.10    -0.18  -0.07   0.06    -0.25   0.03   0.05
  26   1    -0.02   0.08   0.07    -0.01  -0.04  -0.06     0.00   0.09   0.18
  27   1    -0.02  -0.01   0.00     0.02  -0.01  -0.01    -0.08  -0.12  -0.06
  28   1     0.12  -0.15   0.16     0.19  -0.23   0.29    -0.01  -0.00  -0.04
  29   1     0.10   0.12  -0.15     0.16   0.17  -0.27    -0.01   0.00   0.03
  30   1     0.08  -0.01   0.17     0.14  -0.01   0.31    -0.01   0.00  -0.04
  31   1     0.07   0.04  -0.15     0.12   0.07  -0.27    -0.01  -0.01   0.03
  32   1     0.06   0.01  -0.05     0.11   0.03  -0.13    -0.01  -0.00   0.01
  33   1     0.00  -0.00  -0.00     0.00   0.00   0.00    -0.00   0.00  -0.00
  34   1    -0.00  -0.00  -0.00     0.00  -0.00   0.00    -0.00   0.00  -0.00
  35   1    -0.00  -0.00   0.00     0.00  -0.00  -0.00    -0.00   0.00  -0.00
  36   1    -0.00   0.00  -0.00    -0.00   0.00  -0.00     0.00   0.00   0.00
  37   1     0.00  -0.00  -0.00    -0.00   0.00  -0.00     0.00   0.00  -0.00
  38   1    -0.00   0.00  -0.00     0.00  -0.00   0.00     0.00  -0.00   0.00
                     46                     47                     48
                        a                      a                      a 
 Frequencies --   884.7889               946.7440               953.2791
 Red. masses --     9.9097                10.2522                 8.6757
 Frc consts  --     0.0000                 0.0000                 0.0000
 IR Inten    --    16.3368                 7.3827                 6.3298
 Raman Activ --     0.0000                 0.0000                 0.0000
 Depolar     --     0.0000                 0.0000                 0.0000
 Atom AN      X      Y      Z        X      Y      Z        X      Y      Z
   1   6    -0.01   0.01   0.00     0.16  -0.18  -0.02     0.01  -0.03   0.04
   2   6     0.00   0.01   0.01    -0.11  -0.13  -0.08    -0.00  -0.00  -0.02
   3   8    -0.01  -0.02  -0.02    -0.05   0.39  -0.07     0.04   0.06  -0.17
   4   6     0.07  -0.01   0.02     0.03   0.19   0.10    -0.07   0.16   0.15
   5   8    -0.02  -0.00  -0.00    -0.05  -0.03   0.19    -0.07   0.03   0.34
   6   6    -0.12  -0.00  -0.03    -0.05  -0.32  -0.09     0.22  -0.16  -0.42
   7   6    -0.01   0.06   0.10     0.09  -0.25  -0.19    -0.07   0.05   0.27
   8   1    -0.01  -0.01   0.02     0.08  -0.17  -0.05    -0.22   0.18   0.04
   9   6     0.16   0.02  -0.04    -0.04   0.16   0.17     0.02  -0.00  -0.22
  10   8     0.24  -0.03  -0.02    -0.21   0.05   0.02     0.11  -0.04   0.02
  11   8    -0.36   0.40   0.21     0.15   0.16   0.06    -0.10  -0.09  -0.01
  12   6     0.08  -0.37  -0.00     0.02  -0.08   0.04    -0.01   0.03  -0.02
  13   6     0.08  -0.14  -0.20    -0.03  -0.06  -0.10     0.02   0.03   0.05
  14  16     0.00  -0.02  -0.01     0.02   0.01   0.01    -0.01  -0.00  -0.03
  15  15    -0.00   0.00   0.01    -0.00  -0.00  -0.00     0.01   0.00  -0.00
  16  16     0.00   0.00   0.00    -0.00  -0.00   0.00    -0.00   0.00   0.00
  17   8    -0.00  -0.00  -0.00    -0.00  -0.00  -0.00     0.01   0.00   0.01
  18   6     0.00   0.00   0.00     0.00   0.00   0.00    -0.01  -0.00  -0.01
  19   8     0.00  -0.00  -0.00    -0.00   0.01  -0.00     0.00  -0.01  -0.00
  20   6    -0.00   0.00  -0.00     0.00  -0.01   0.00    -0.00   0.01  -0.00
  21   1    -0.00  -0.00  -0.00    -0.09   0.08   0.01    -0.09   0.03  -0.02
  22   1     0.01  -0.00  -0.00     0.01   0.07  -0.00     0.07   0.01  -0.02
  23   1    -0.01   0.00  -0.00     0.30  -0.01  -0.00     0.04   0.01  -0.03
  24   1    -0.00   0.00  -0.00    -0.11   0.09   0.02    -0.06   0.10   0.04
  25   1     0.01  -0.00  -0.00    -0.03  -0.01  -0.02     0.04  -0.07  -0.02
  26   1    -0.05   0.02  -0.08    -0.01  -0.11  -0.15     0.13  -0.11   0.24
  27   1     0.03   0.02   0.01     0.09  -0.07   0.00    -0.18  -0.29  -0.20
  28   1    -0.05  -0.08  -0.14     0.00   0.05   0.09     0.00  -0.04  -0.05
  29   1    -0.03  -0.01   0.25     0.00  -0.04  -0.01    -0.00   0.02   0.01
  30   1    -0.09   0.09  -0.13     0.02   0.02   0.08    -0.01  -0.01  -0.04
  31   1    -0.06   0.04   0.28     0.02   0.04  -0.03    -0.01  -0.02   0.02
  32   1    -0.10   0.07  -0.32     0.02   0.03  -0.14    -0.01  -0.01   0.06
  33   1     0.00   0.00   0.00     0.00  -0.00   0.00    -0.00  -0.00  -0.00
  34   1     0.00   0.00   0.00     0.00  -0.00   0.00    -0.00  -0.00  -0.00
  35   1    -0.00   0.00  -0.00     0.00   0.00   0.00    -0.00  -0.00  -0.00
  36   1    -0.00   0.00  -0.00     0.00  -0.00   0.00    -0.00   0.00  -0.00
  37   1    -0.00   0.00   0.00     0.00  -0.00   0.00    -0.00   0.00   0.00
  38   1    -0.00  -0.00   0.00     0.00   0.00  -0.00    -0.00  -0.00  -0.00
                     49                     50                     51
                        a                      a                      a 
 Frequencies --   962.3078               987.5969              1024.9013
 Red. masses --     8.9458                14.5057                14.0882
 Frc consts  --     0.0000                 0.0000                 0.0000
 IR Inten    --    31.8664               318.9771               173.6533
 Raman Activ --     0.0000                 0.0000                 0.0000
 Depolar     --     0.0000                 0.0000                 0.0000
 Atom AN      X      Y      Z        X      Y      Z        X      Y      Z
   1   6     0.09  -0.09  -0.02     0.01  -0.01  -0.00    -0.00   0.00   0.00
   2   6    -0.06  -0.04  -0.04    -0.00  -0.00  -0.00     0.00  -0.00  -0.00
   3   8    -0.07   0.19  -0.02    -0.01   0.01   0.00     0.00   0.01  -0.00
   4   6     0.24   0.02   0.06     0.02  -0.00   0.00     0.00  -0.01   0.00
   5   8    -0.05  -0.03   0.00    -0.00  -0.00  -0.01    -0.00   0.00  -0.00
   6   6    -0.34  -0.15   0.01    -0.02  -0.01   0.01     0.01  -0.01   0.01
   7   6     0.21   0.35   0.18     0.02   0.02   0.00    -0.01   0.01   0.00
   8   1     0.19   0.17   0.10     0.02   0.00   0.00     0.01   0.02   0.01
   9   6     0.01  -0.11  -0.15    -0.00  -0.00  -0.00    -0.00  -0.01  -0.02
  10   8     0.16  -0.02  -0.00     0.00  -0.00   0.00     0.00  -0.00   0.00
  11   8    -0.15  -0.21  -0.09    -0.00  -0.00  -0.00     0.01   0.01   0.01
  12   6    -0.02   0.08  -0.07    -0.00  -0.00  -0.00     0.00  -0.01  -0.00
  13   6     0.02   0.09   0.15     0.00   0.01   0.01     0.00   0.00  -0.00
  14  16    -0.06  -0.06   0.02    -0.00  -0.00   0.00    -0.01  -0.01   0.00
  15  15     0.00  -0.01   0.01    -0.12   0.10  -0.03    -0.07  -0.03   0.00
  16  16     0.00   0.00   0.00    -0.01   0.00   0.00    -0.01  -0.00  -0.00
  17   8    -0.03   0.00  -0.03     0.56  -0.05   0.44     0.20  -0.07   0.15
  18   6     0.03   0.00   0.03    -0.40  -0.05  -0.43    -0.13  -0.05  -0.14
  19   8    -0.00   0.01  -0.00     0.10  -0.21   0.03    -0.26   0.65  -0.09
  20   6     0.00  -0.01   0.00    -0.11   0.19  -0.03     0.30  -0.52   0.08
  21   1    -0.03   0.04   0.01    -0.00   0.00   0.00    -0.00  -0.00  -0.00
  22   1    -0.01   0.04   0.00    -0.00   0.00   0.00     0.00   0.00  -0.00
  23   1     0.16  -0.01   0.00     0.01  -0.00   0.00    -0.00   0.00  -0.00
  24   1    -0.05   0.04   0.01    -0.01   0.00   0.00     0.00  -0.00   0.00
  25   1    -0.03   0.01  -0.00    -0.01   0.00   0.00     0.00   0.00  -0.00
  26   1    -0.04  -0.14  -0.31    -0.00  -0.01  -0.02     0.01  -0.01  -0.00
  27   1     0.17   0.12   0.08     0.01   0.01   0.01     0.00   0.00   0.00
  28   1    -0.00  -0.06  -0.11     0.00  -0.00  -0.00     0.00  -0.00   0.00
  29   1    -0.01   0.02  -0.02     0.00  -0.00  -0.00     0.00  -0.00  -0.00
  30   1    -0.01  -0.04  -0.08     0.00  -0.00  -0.00     0.00  -0.00  -0.00
  31   1    -0.02  -0.05   0.00    -0.00  -0.00  -0.00    -0.00  -0.00  -0.00
  32   1    -0.01  -0.05   0.21     0.00  -0.00   0.01     0.00  -0.00   0.00
  33   1     0.00   0.00   0.00    -0.03  -0.01  -0.07    -0.01   0.02  -0.02
  34   1     0.00   0.00   0.00    -0.05   0.00  -0.03     0.02   0.02   0.03
  35   1     0.00   0.00   0.00    -0.04  -0.03  -0.03    -0.06  -0.00  -0.05
  36   1    -0.00  -0.00   0.00    -0.01   0.03  -0.00     0.04  -0.09   0.01
  37   1     0.00   0.00  -0.00    -0.02   0.02  -0.01     0.05  -0.04   0.02
  38   1     0.00   0.00  -0.00    -0.02   0.02   0.01     0.05  -0.04  -0.01
                     52                     53                     54
                        a                      a                      a 
 Frequencies --  1042.4806              1045.3067              1078.1137
 Red. masses --     8.8141                 9.0828                 9.4712
 Frc consts  --     0.0000                 0.0000                 0.0000
 IR Inten    --    43.4157                18.1866                12.0355
 Raman Activ --     0.0000                 0.0000                 0.0000
 Depolar     --     0.0000                 0.0000                 0.0000
 Atom AN      X      Y      Z        X      Y      Z        X      Y      Z
   1   6    -0.08   0.06   0.01     0.34  -0.22  -0.04    -0.14   0.04  -0.01
   2   6     0.08  -0.10  -0.02    -0.35   0.41   0.10     0.18  -0.18  -0.05
   3   8     0.01   0.05   0.03     0.00  -0.22  -0.10    -0.02   0.24   0.02
   4   6    -0.02   0.05  -0.00    -0.03  -0.17  -0.01     0.04   0.02   0.00
   5   8    -0.00   0.00   0.02     0.02   0.00  -0.04     0.00  -0.02  -0.02
   6   6     0.00  -0.01  -0.04     0.15   0.02   0.17     0.25  -0.25   0.35
   7   6     0.02  -0.09  -0.04    -0.21   0.06  -0.10    -0.46   0.21  -0.27
   8   1    -0.00  -0.17  -0.04    -0.14   0.05  -0.04    -0.18   0.19  -0.06
   9   6     0.05   0.13   0.10     0.04   0.01   0.02     0.06  -0.00   0.01
  10   8    -0.03  -0.00  -0.01     0.03  -0.02  -0.02     0.07  -0.05  -0.04
  11   8    -0.02   0.27   0.06    -0.02   0.07   0.02    -0.03   0.01  -0.01
  12   6    -0.02  -0.33  -0.48    -0.02  -0.08  -0.12    -0.04  -0.02   0.03
  13   6     0.02   0.15   0.41     0.01   0.03   0.10     0.02   0.03  -0.02
  14  16     0.01   0.00  -0.01     0.02   0.01  -0.01     0.03   0.01   0.01
  15  15     0.00   0.00   0.00     0.00  -0.00  -0.00     0.00  -0.00  -0.01
  16  16    -0.00  -0.00  -0.00     0.00   0.00  -0.00     0.00   0.00   0.00
  17   8    -0.00   0.00  -0.00    -0.00   0.00  -0.00    -0.01   0.00  -0.00
  18   6     0.00   0.00   0.00     0.00   0.00   0.00     0.00   0.00   0.00
  19   8    -0.00   0.00  -0.00     0.00  -0.00  -0.00     0.00  -0.02   0.01
  20   6     0.00   0.00  -0.00    -0.00   0.00   0.00    -0.01   0.01  -0.01
  21   1     0.00  -0.02  -0.01     0.01   0.07   0.04    -0.03  -0.00  -0.01
  22   1    -0.00  -0.02  -0.00     0.03   0.08   0.01    -0.05  -0.00   0.00
  23   1    -0.09   0.01  -0.00     0.35  -0.03   0.02    -0.05   0.01   0.00
  24   1     0.04  -0.04  -0.01    -0.16   0.17   0.04     0.05  -0.05  -0.01
  25   1     0.03  -0.03  -0.01    -0.14   0.11   0.04     0.06  -0.02  -0.01
  26   1    -0.03   0.05   0.00     0.07  -0.04   0.06     0.21  -0.30  -0.02
  27   1     0.01  -0.06  -0.02    -0.04   0.09   0.04     0.11   0.02   0.12
  28   1    -0.01  -0.13  -0.21     0.00  -0.05  -0.06     0.01  -0.07  -0.02
  29   1     0.01  -0.09  -0.18     0.01  -0.00  -0.04     0.01   0.04   0.02
  30   1     0.02  -0.09  -0.02     0.00  -0.02  -0.02    -0.01  -0.01  -0.06
  31   1    -0.02  -0.09   0.00    -0.01  -0.02   0.01    -0.01  -0.01   0.01
  32   1     0.01  -0.08   0.38    -0.00  -0.02   0.09    -0.02  -0.01   0.03
  33   1     0.00   0.00   0.00    -0.00  -0.00  -0.00    -0.00  -0.00  -0.00
  34   1    -0.00  -0.00   0.00    -0.00  -0.00  -0.00    -0.00  -0.00   0.00
  35   1    -0.00   0.00  -0.00     0.00   0.00   0.00     0.00  -0.00   0.01
  36   1    -0.00   0.00   0.00     0.00  -0.00  -0.00    -0.00   0.00   0.00
  37   1     0.00  -0.00  -0.00     0.00  -0.00   0.00    -0.00   0.01   0.00
  38   1     0.00  -0.00   0.00    -0.01   0.01  -0.00     0.00  -0.01   0.00
                     55                     56                     57
                        a                      a                      a 
 Frequencies --  1092.5590              1093.9501              1095.1400
 Red. masses --     7.2098                 7.3011                 4.7917
 Frc consts  --     0.0000                 0.0000                 0.0000
 IR Inten    --     9.5377                 6.2002               122.3872
 Raman Activ --     0.0000                 0.0000                 0.0000
 Depolar     --     0.0000                 0.0000                 0.0000
 Atom AN      X      Y      Z        X      Y      Z        X      Y      Z
   1   6    -0.22  -0.12  -0.06    -0.34  -0.20  -0.10     0.04   0.04   0.03
   2   6     0.27   0.06   0.05     0.42   0.16   0.10    -0.04  -0.09  -0.08
   3   8    -0.05   0.01  -0.02    -0.07  -0.10  -0.03    -0.01   0.23  -0.03
   4   6     0.03  -0.07   0.01     0.00  -0.03  -0.00     0.10  -0.25   0.04
   5   8    -0.00  -0.00  -0.03    -0.00   0.00  -0.01    -0.00  -0.00  -0.07
   6   6    -0.02   0.04   0.01    -0.02   0.05  -0.04    -0.12   0.15  -0.00
   7   6     0.04  -0.05   0.04     0.05  -0.03   0.04     0.17  -0.18   0.19
   8   1    -0.08   0.03  -0.01    -0.00  -0.06  -0.00    -0.36  -0.10  -0.07
   9   6    -0.01  -0.02  -0.03     0.00   0.01   0.02    -0.01   0.02  -0.01
  10   8    -0.01   0.00   0.01    -0.01   0.01  -0.00    -0.04   0.02   0.02
  11   8     0.02  -0.06   0.06    -0.00   0.05  -0.03     0.01   0.04  -0.00
  12   6    -0.01   0.25  -0.39     0.02  -0.17   0.24     0.03  -0.07   0.07
  13   6     0.01  -0.30   0.29    -0.01   0.19  -0.18    -0.02   0.06  -0.06
  14  16     0.00   0.00  -0.01    -0.00  -0.00  -0.01     0.01   0.01  -0.04
  15  15    -0.00  -0.00   0.00     0.00   0.00   0.00     0.01   0.01   0.01
  16  16     0.00   0.00  -0.00    -0.00  -0.00  -0.00    -0.00  -0.00  -0.00
  17   8     0.00  -0.00   0.00    -0.00  -0.00  -0.00    -0.01  -0.01   0.01
  18   6    -0.00  -0.00  -0.00    -0.00   0.00   0.00     0.02   0.01  -0.02
  19   8     0.00   0.00   0.00    -0.00   0.00   0.00     0.00   0.00  -0.01
  20   6    -0.00  -0.00  -0.01     0.00  -0.00  -0.01     0.00   0.00   0.01
  21   1    -0.15   0.10   0.04    -0.24   0.17   0.06     0.03  -0.03  -0.02
  22   1    -0.15   0.11   0.01    -0.24   0.19   0.02     0.05  -0.04  -0.01
  23   1     0.18  -0.00   0.01     0.32  -0.01   0.02    -0.06   0.01  -0.01
  24   1     0.04   0.05   0.01     0.07   0.07   0.02    -0.03   0.04   0.02
  25   1     0.05   0.04   0.02     0.07   0.07   0.04    -0.00  -0.04  -0.02
  26   1     0.05  -0.08   0.01    -0.02   0.04   0.02     0.23  -0.34   0.04
  27   1    -0.08   0.13   0.01    -0.03   0.02  -0.01    -0.34   0.46   0.00
  28   1     0.00   0.11  -0.04    -0.00  -0.05   0.03    -0.01   0.00   0.02
  29   1    -0.01   0.07  -0.07     0.01  -0.06   0.04    -0.00  -0.04   0.01
  30   1    -0.01   0.10   0.29     0.01  -0.06  -0.17     0.01  -0.02  -0.04
  31   1     0.03   0.11   0.27    -0.02  -0.07  -0.18    -0.00  -0.02  -0.07
  32   1    -0.00   0.08  -0.29     0.00  -0.05   0.19     0.01  -0.02   0.06
  33   1     0.00  -0.00   0.00     0.00  -0.00   0.00    -0.03  -0.01  -0.02
  34   1    -0.00  -0.00  -0.00    -0.00   0.00  -0.00     0.00  -0.01   0.02
  35   1     0.00  -0.00  -0.00    -0.00   0.00  -0.00     0.01   0.00   0.03
  36   1    -0.00   0.00   0.00    -0.00   0.00   0.00    -0.00   0.00  -0.01
  37   1    -0.01   0.01   0.00    -0.01   0.01   0.00     0.01  -0.02  -0.00
  38   1     0.01  -0.01   0.00     0.01  -0.01   0.01    -0.01   0.02  -0.01
                     58                     59                     60
                        a                      a                      a 
 Frequencies --  1093.7575              1102.0988              1109.2411
 Red. masses --     3.4532                 4.0672                 3.5373
 Frc consts  --     0.0000                 0.0000                 0.0000
 IR Inten    --     1.8921                 5.8029                 1.9719
 Raman Activ --     0.0000                 0.0000                 0.0000
 Depolar     --     0.0000                 0.0000                 0.0000
 Atom AN      X      Y      Z        X      Y      Z        X      Y      Z
   1   6    -0.00  -0.00   0.00     0.00  -0.00   0.00     0.02   0.00   0.01
   2   6     0.00   0.01   0.00     0.00   0.00   0.00    -0.03   0.00  -0.01
   3   8    -0.00  -0.01   0.00    -0.00  -0.00   0.00     0.00  -0.00   0.00
   4   6    -0.01   0.01  -0.00    -0.00   0.00  -0.00     0.00   0.00  -0.00
   5   8     0.00   0.00   0.00     0.00  -0.00   0.00     0.00  -0.00  -0.00
   6   6     0.01  -0.01  -0.00     0.00  -0.00   0.00    -0.01   0.01  -0.00
   7   6    -0.00   0.01  -0.01    -0.00   0.00  -0.00     0.01  -0.01   0.01
   8   1     0.03   0.01   0.01     0.00  -0.00   0.00    -0.02  -0.01  -0.00
   9   6    -0.00  -0.01  -0.00     0.00   0.00   0.00     0.00   0.00   0.00
  10   8     0.00   0.00  -0.00     0.00  -0.00  -0.00    -0.00   0.00   0.00
  11   8     0.00   0.01   0.00    -0.00  -0.00  -0.00    -0.00  -0.00  -0.00
  12   6     0.01   0.00  -0.01     0.00   0.00  -0.00     0.00  -0.00   0.01
  13   6    -0.00  -0.00   0.01    -0.00  -0.00   0.00    -0.00   0.00  -0.00
  14  16     0.00  -0.00  -0.00     0.01   0.00  -0.00     0.00   0.00  -0.00
  15  15    -0.01  -0.01   0.00     0.03  -0.02  -0.01    -0.00  -0.00   0.01
  16  16     0.00   0.00  -0.00    -0.00   0.00  -0.00    -0.00  -0.00  -0.00
  17   8    -0.11  -0.12   0.12    -0.12   0.22   0.11     0.00   0.00  -0.01
  18   6     0.22   0.24  -0.24     0.17  -0.31  -0.18    -0.01  -0.00   0.01
  19   8     0.01   0.03   0.00    -0.04  -0.06   0.02     0.03   0.05   0.20
  20   6    -0.02  -0.02  -0.01     0.07   0.06  -0.02    -0.04  -0.08  -0.40
  21   1    -0.00   0.00   0.00    -0.00   0.00   0.00     0.00  -0.00  -0.00
  22   1    -0.00   0.00  -0.00    -0.00   0.00   0.00     0.02  -0.01  -0.00
  23   1     0.01   0.00  -0.00     0.00  -0.00  -0.00    -0.01   0.00  -0.00
  24   1     0.00  -0.00   0.00     0.00  -0.00  -0.00     0.00  -0.01  -0.00
  25   1    -0.00   0.00   0.00    -0.00   0.00   0.00     0.00   0.00  -0.00
  26   1    -0.02   0.03  -0.00    -0.00   0.01  -0.00     0.01  -0.02   0.00
  27   1     0.02  -0.03  -0.00     0.01  -0.01   0.00    -0.01   0.02  -0.00
  28   1    -0.00   0.00  -0.00    -0.00   0.00  -0.00    -0.00  -0.00  -0.00
  29   1     0.00  -0.00  -0.00    -0.00   0.00   0.00     0.00  -0.00  -0.00
  30   1     0.00   0.00   0.01     0.00   0.00   0.00    -0.00  -0.00  -0.00
  31   1     0.00   0.00  -0.00    -0.00   0.00   0.00     0.00  -0.00  -0.01
  32   1     0.00   0.00  -0.00     0.00   0.00  -0.00     0.00  -0.00   0.00
  33   1    -0.48  -0.17  -0.36    -0.25   0.17  -0.12     0.02   0.00   0.01
  34   1    -0.07  -0.15   0.20     0.41   0.14   0.50    -0.00   0.00  -0.01
  35   1     0.26  -0.03   0.51    -0.38   0.10  -0.15    -0.00  -0.00  -0.01
  36   1     0.03  -0.03   0.01    -0.09   0.12  -0.01     0.05  -0.01   0.25
  37   1    -0.01   0.04  -0.00    -0.02  -0.06   0.03    -0.32   0.52   0.09
  38   1     0.01   0.01   0.00     0.00  -0.10   0.01     0.34  -0.41   0.24
                     61                     62                     63
                        a                      a                      a 
 Frequencies --  1114.5419              1129.4141              1143.9243
 Red. masses --     4.0881                 6.0780                 6.2917
 Frc consts  --     0.0000                 0.0000                 0.0000
 IR Inten    --     6.9788               181.1237                41.9235
 Raman Activ --     0.0000                 0.0000                 0.0000
 Depolar     --     0.0000                 0.0000                 0.0000
 Atom AN      X      Y      Z        X      Y      Z        X      Y      Z
   1   6    -0.01   0.00   0.00    -0.01  -0.01   0.03     0.04   0.08  -0.24
   2   6     0.01  -0.00  -0.00     0.02  -0.01  -0.06    -0.08  -0.07   0.42
   3   8    -0.00   0.00   0.00    -0.00   0.08   0.01     0.03  -0.13  -0.18
   4   6    -0.00  -0.01   0.00    -0.03  -0.11   0.00     0.04   0.34  -0.02
   5   8     0.00   0.00   0.00     0.00   0.01   0.00    -0.02  -0.05   0.05
   6   6     0.00  -0.00   0.00     0.03  -0.02   0.04    -0.06  -0.03  -0.02
   7   6    -0.00  -0.00   0.00    -0.04  -0.16  -0.02     0.04  -0.05   0.03
   8   1     0.00   0.00   0.00     0.13   0.54   0.13    -0.11   0.02  -0.02
   9   6    -0.00  -0.00  -0.00    -0.15  -0.25  -0.23    -0.02  -0.04  -0.03
  10   8     0.00  -0.00   0.00    -0.00   0.03   0.03     0.01   0.01   0.01
  11   8    -0.00   0.00   0.00     0.02   0.27   0.13    -0.05   0.04   0.02
  12   6     0.00  -0.00  -0.00     0.29  -0.13  -0.07     0.12  -0.02  -0.01
  13   6    -0.00   0.00  -0.00    -0.16   0.03   0.01    -0.07   0.00   0.00
  14  16    -0.00  -0.00   0.00    -0.01   0.01   0.04     0.00   0.00  -0.01
  15  15    -0.02  -0.02  -0.01     0.00   0.00  -0.01     0.00   0.00  -0.00
  16  16    -0.00   0.00   0.00     0.00  -0.00   0.00    -0.00  -0.00   0.00
  17   8    -0.03   0.08   0.02    -0.01   0.00  -0.00    -0.00   0.00   0.00
  18   6     0.03  -0.08  -0.02     0.00  -0.00   0.01     0.00   0.00  -0.00
  19   8     0.25   0.08  -0.03    -0.00  -0.02   0.01     0.00   0.00  -0.00
  20   6    -0.38  -0.14   0.06    -0.00   0.01  -0.01    -0.00  -0.00   0.00
  21   1    -0.00  -0.00   0.00    -0.03   0.00  -0.01     0.27  -0.06   0.09
  22   1    -0.00   0.00   0.00     0.04  -0.00  -0.01    -0.28   0.01   0.06
  23   1    -0.00   0.00  -0.00    -0.00   0.01  -0.02    -0.01  -0.04   0.12
  24   1    -0.00   0.01   0.00     0.00   0.05   0.03    -0.06  -0.32  -0.22
  25   1    -0.00  -0.00   0.00    -0.00  -0.04  -0.01     0.08   0.31   0.04
  26   1    -0.00   0.00   0.00    -0.06   0.09  -0.00     0.11  -0.19  -0.05
  27   1    -0.00   0.00  -0.00    -0.03   0.07   0.02    -0.01   0.02  -0.00
  28   1    -0.00   0.00  -0.00    -0.07   0.28   0.08    -0.03   0.10   0.01
  29   1     0.00  -0.00   0.00    -0.03  -0.23  -0.03    -0.02  -0.09   0.00
  30   1     0.00  -0.00   0.00     0.06  -0.04   0.15     0.03  -0.01   0.07
  31   1     0.00  -0.00  -0.00     0.04   0.01  -0.20     0.02   0.01  -0.08
  32   1     0.00  -0.00   0.00     0.09  -0.00   0.03     0.04   0.00   0.00
  33   1    -0.02   0.05  -0.00     0.01   0.00   0.01    -0.00  -0.00  -0.00
  34   1     0.10   0.04   0.10     0.00   0.00  -0.01    -0.00  -0.00   0.00
  35   1    -0.10   0.02  -0.06    -0.00   0.00  -0.01     0.00   0.00   0.00
  36   1     0.41  -0.51   0.05    -0.00   0.01   0.00     0.00  -0.00  -0.00
  37   1     0.06   0.30  -0.12    -0.01   0.00   0.00     0.01  -0.00  -0.00
  38   1    -0.00   0.41  -0.03     0.00  -0.01   0.00     0.00   0.01  -0.00
                     64                     65                     66
                        a                      a                      a 
 Frequencies --  1153.2259              1191.8834              1191.2491
 Red. masses --     5.6634                 9.6201                 7.8013
 Frc consts  --     0.0000                 0.0000                 0.0000
[...]
  15  15     0.00  -0.00  -0.00    -0.00  -0.00   0.00     0.00   0.00   0.00
  16  16    -0.00   0.00   0.00     0.00   0.00  -0.00    -0.00  -0.00  -0.00
  17   8    -0.00  -0.00  -0.00     0.00  -0.00   0.00    -0.00   0.00   0.00
  18   6     0.00  -0.00  -0.00    -0.00  -0.00   0.00    -0.00  -0.00   0.00
  19   8    -0.00   0.00   0.00     0.00   0.00   0.00     0.01  -0.01   0.00
  20   6    -0.00   0.00   0.01     0.00   0.00   0.00     0.13   0.01   0.21
  21   1    -0.01  -0.01   0.00    -0.00  -0.00   0.00    -0.00  -0.00   0.00
  22   1     0.02   0.00   0.05    -0.00   0.00  -0.00    -0.00   0.00  -0.00
  23   1    -0.00   0.01   0.00     0.00  -0.00  -0.00     0.00  -0.00  -0.00
  24   1     0.00  -0.02   0.05    -0.00  -0.00   0.00     0.00   0.00  -0.00
  25   1    -0.35  -0.05  -0.90     0.00   0.00   0.00     0.00   0.00   0.01
  26   1     0.01   0.00  -0.00    -0.00  -0.00  -0.00    -0.01  -0.01   0.00
  27   1    -0.00  -0.00   0.00     0.00   0.00  -0.00    -0.00  -0.00   0.01
  28   1    -0.00  -0.00   0.00    -0.08  -0.02   0.01    -0.00  -0.00   0.00
  29   1     0.00  -0.00   0.00     0.82  -0.42   0.28    -0.00   0.00  -0.00
  30   1    -0.00  -0.00   0.00    -0.01  -0.01   0.00    -0.00  -0.00   0.00
  31   1     0.00  -0.00   0.00    -0.05   0.03  -0.02     0.00  -0.00   0.00
  32   1    -0.00  -0.00  -0.00     0.00   0.01   0.01     0.00  -0.00  -0.00
  33   1    -0.00  -0.00   0.00     0.00   0.00  -0.00     0.01   0.00  -0.01
  34   1    -0.00   0.00   0.00    -0.00  -0.00   0.00    -0.00  -0.00   0.00
  35   1     0.00   0.00  -0.00     0.00   0.00   0.00     0.00   0.01   0.00
  36   1    -0.00  -0.00   0.00     0.00   0.00   0.00     0.06   0.06   0.02
  37   1    -0.01  -0.00  -0.01    -0.00  -0.00  -0.00    -0.56  -0.08  -0.78
  38   1     0.02  -0.00  -0.02     0.00  -0.00  -0.00     0.04   0.00   0.00
                     94                     95                     96
                        a                      a                      a 
 Frequencies --  2981.0205              2981.8870              2985.6323
 Red. masses --     1.6549                 1.6141                 1.7695
 Frc consts  --     0.0000                 0.0000                 0.0000
 IR Inten    --    15.1827                 8.0509                 5.3480
 Raman Activ --     0.0000                 0.0000                 0.0000
 Depolar     --     0.0000                 0.0000                 0.0000
 Atom AN      X      Y      Z        X      Y      Z        X      Y      Z
   1   6    -0.00  -0.00   0.00     0.00   0.00  -0.00    -0.00  -0.00  -0.00
   2   6     0.00   0.01  -0.01    -0.00  -0.00   0.00    -0.00  -0.00   0.00
   3   8    -0.00   0.00  -0.00     0.00  -0.00   0.00     0.00  -0.00   0.00
   4   6    -0.00  -0.00  -0.00    -0.00   0.00   0.00     0.00   0.00   0.00
   5   8    -0.00   0.00   0.00    -0.00  -0.00  -0.00     0.00  -0.00  -0.00
   6   6    -0.01  -0.01   0.00    -0.00  -0.00   0.00     0.03   0.02  -0.00
   7   6    -0.00   0.00  -0.00     0.00  -0.00  -0.00     0.00   0.00  -0.00
   8   1    -0.00  -0.00   0.00    -0.00  -0.00   0.00    -0.00  -0.00   0.00
   9   6    -0.00  -0.00  -0.00    -0.00   0.00   0.00     0.00  -0.00  -0.00
  10   8    -0.00   0.00  -0.00     0.00  -0.00  -0.00    -0.00  -0.00   0.00
  11   8     0.00   0.00   0.00    -0.00  -0.00  -0.00     0.00   0.01   0.00
  12   6     0.00   0.00  -0.00    -0.01  -0.00   0.00     0.22   0.11  -0.09
  13   6     0.00   0.00  -0.00     0.00   0.00   0.00    -0.02  -0.01   0.00
  14  16     0.00   0.00  -0.00     0.00   0.00  -0.00    -0.00  -0.00  -0.00
  15  15    -0.00  -0.00   0.00    -0.00   0.00   0.00    -0.00   0.00  -0.00
  16  16     0.00  -0.00   0.00    -0.00  -0.00  -0.00    -0.00   0.00   0.00
  17   8     0.00  -0.00   0.00     0.01  -0.00   0.01     0.00   0.00   0.00
  18   6    -0.01  -0.00   0.03    -0.09  -0.04   0.21     0.00   0.00   0.00
  19   8    -0.01   0.01   0.00     0.00  -0.00  -0.00     0.00   0.00  -0.00
  20   6    -0.13   0.05   0.20     0.02  -0.01  -0.03     0.00   0.00  -0.00
  21   1     0.00   0.01  -0.01    -0.00  -0.00   0.00     0.00   0.00  -0.00
  22   1    -0.00  -0.00  -0.01     0.00   0.00   0.00     0.00  -0.00   0.00
  23   1    -0.00  -0.00   0.00    -0.00   0.00  -0.00    -0.00   0.00   0.00
  24   1    -0.02  -0.02   0.02     0.01   0.01  -0.01     0.00   0.00  -0.00
  25   1     0.01   0.00   0.03    -0.00  -0.00  -0.01    -0.00  -0.00  -0.00
  26   1     0.03   0.02  -0.00     0.00   0.00  -0.00    -0.11  -0.08   0.01
  27   1     0.00   0.00  -0.01     0.00   0.00  -0.01     0.01   0.00  -0.01
  28   1    -0.00  -0.00   0.00     0.02   0.01  -0.01    -0.76  -0.45   0.34
  29   1    -0.00   0.00  -0.00    -0.00   0.00  -0.00    -0.02   0.04  -0.03
  30   1    -0.00  -0.00   0.00    -0.00  -0.00   0.00     0.09   0.06  -0.04
  31   1     0.00  -0.00   0.00    -0.00   0.00  -0.00     0.02  -0.01   0.01
  32   1     0.00  -0.00  -0.00     0.00  -0.00  -0.00    -0.00   0.01   0.01
  33   1     0.06   0.03  -0.13     0.41   0.19  -0.83     0.01   0.01  -0.02
  34   1    -0.01   0.01   0.01    -0.08   0.05   0.04    -0.00   0.00   0.00
  35   1    -0.01  -0.03   0.01    -0.05  -0.09   0.03    -0.01  -0.02   0.00
  36   1    -0.07  -0.05   0.04     0.01   0.01  -0.01    -0.00  -0.00   0.00
  37   1    -0.00   0.00   0.05     0.01   0.00   0.00     0.00   0.00   0.00
  38   1     0.53  -0.17  -0.77    -0.08   0.03   0.12    -0.00   0.00   0.00
                     97                     98                     99
                        a                      a                      a 
 Frequencies --  2986.9900              2993.5013              2997.2557
 Red. masses --     1.6934                 1.7479                 1.7183
 Frc consts  --     0.0000                 0.0000                 0.0000
 IR Inten    --     1.5104                 9.6987                 6.4091
 Raman Activ --     0.0000                 0.0000                 0.0000
 Depolar     --     0.0000                 0.0000                 0.0000
 Atom AN      X      Y      Z        X      Y      Z        X      Y      Z
   1   6    -0.00   0.00   0.00    -0.01  -0.02   0.02     0.00   0.00  -0.00
   2   6     0.00   0.00  -0.01     0.13   0.15  -0.17    -0.00  -0.00   0.00
   3   8    -0.00   0.00  -0.00     0.00   0.01  -0.00    -0.00  -0.00   0.00
   4   6    -0.00  -0.01  -0.00     0.00  -0.00  -0.00     0.00   0.00  -0.00
   5   8    -0.00   0.00   0.00    -0.00  -0.00   0.00    -0.00  -0.00   0.00
   6   6    -0.20  -0.14  -0.00     0.01   0.00  -0.01     0.00   0.00  -0.00
   7   6    -0.01  -0.00   0.00     0.00   0.00  -0.00     0.00   0.00  -0.00
   8   1     0.00   0.00  -0.01    -0.00  -0.00   0.00    -0.00  -0.00   0.00
   9   6    -0.00   0.00  -0.00     0.00  -0.00  -0.00     0.00  -0.00  -0.00
  10   8     0.00  -0.00  -0.00    -0.00   0.00   0.00    -0.00  -0.00   0.00
  11   8     0.00   0.00   0.00    -0.00   0.00  -0.00    -0.00   0.00   0.00
  12   6     0.03   0.02  -0.01     0.00  -0.00   0.00     0.00   0.00  -0.00
  13   6    -0.00  -0.00   0.00    -0.00   0.00   0.00    -0.00  -0.00   0.00
  14  16     0.00   0.00  -0.00     0.00   0.00  -0.00    -0.00  -0.00  -0.00
  15  15    -0.00  -0.00   0.00     0.00   0.00   0.00     0.00  -0.00  -0.00
  16  16     0.00  -0.00  -0.00     0.00  -0.00  -0.00    -0.00  -0.00   0.00
  17   8    -0.00  -0.00  -0.00    -0.00   0.00   0.00    -0.01  -0.00  -0.00
  18   6    -0.00  -0.00  -0.00    -0.00  -0.00   0.00    -0.13  -0.22   0.04
  19   8     0.00  -0.00  -0.00     0.00  -0.00  -0.00     0.00   0.00   0.00
  20   6     0.01  -0.00  -0.00     0.01  -0.00  -0.01    -0.01  -0.00  -0.00
  21   1     0.00   0.00  -0.00     0.06   0.07  -0.07    -0.00  -0.00   0.00
  22   1    -0.00  -0.00  -0.00    -0.01  -0.01  -0.02     0.00   0.00  -0.00
  23   1     0.00  -0.00  -0.00    -0.00   0.02   0.01     0.00  -0.00  -0.00
  24   1    -0.01  -0.01   0.01    -0.49  -0.57   0.60     0.00   0.00  -0.00
  25   1     0.00   0.00   0.01     0.03   0.02  -0.00     0.00  -0.00   0.00
  26   1     0.78   0.53  -0.08    -0.02  -0.01   0.00    -0.01  -0.01   0.00
  27   1    -0.04  -0.03   0.08    -0.00  -0.00   0.02    -0.00  -0.00   0.01
  28   1    -0.11  -0.07   0.05     0.00   0.00  -0.00    -0.01  -0.01   0.01
  29   1    -0.00   0.00  -0.00    -0.00   0.00  -0.00    -0.00   0.00  -0.00
  30   1     0.02   0.01  -0.01    -0.00  -0.00   0.00     0.01   0.00  -0.00
  31   1     0.00  -0.00   0.00     0.00   0.00   0.00     0.00  -0.00   0.00
  32   1    -0.00   0.00   0.00    -0.00  -0.00  -0.00    -0.00   0.00   0.00
  33   1    -0.00  -0.00   0.00     0.00   0.00  -0.00     0.04  -0.01  -0.09
  34   1     0.00  -0.00  -0.00    -0.00   0.00   0.00     0.08  -0.12  -0.02
  35   1     0.00   0.01  -0.00     0.00   0.00   0.00     0.35   0.88  -0.01
  36   1     0.01   0.00  -0.00    -0.00  -0.00  -0.00     0.01   0.01  -0.00
  37   1    -0.01  -0.00  -0.01    -0.00  -0.00  -0.01     0.01   0.00   0.01
  38   1    -0.02   0.01   0.03    -0.02   0.01   0.03     0.01  -0.00  -0.01
                    100                    101                    102
                        a                      a                      a 
 Frequencies --  3002.6868              3022.2159              3028.9187
 Red. masses --     1.7951                 1.7970                 1.8352
 Frc consts  --     0.0000                 0.0000                 0.0000
 IR Inten    --     4.2775                 1.3323                 0.6850
 Raman Activ --     0.0000                 0.0000                 0.0000
 Depolar     --     0.0000                 0.0000                 0.0000
 Atom AN      X      Y      Z        X      Y      Z        X      Y      Z
   1   6    -0.00  -0.00   0.00    -0.00  -0.00   0.00    -0.00  -0.00  -0.00
   2   6     0.00   0.00  -0.00     0.00   0.00  -0.00     0.00   0.00  -0.00
   3   8     0.00   0.00  -0.00    -0.00   0.00  -0.00    -0.00   0.00  -0.00
   4   6    -0.00  -0.00   0.01     0.00  -0.00  -0.00     0.00  -0.00  -0.00
   5   8     0.00  -0.00  -0.00    -0.00  -0.00   0.00    -0.00   0.00  -0.00
   6   6    -0.07  -0.05   0.25     0.00   0.00  -0.00     0.00   0.00  -0.00
   7   6    -0.00  -0.00   0.02     0.00   0.00  -0.00    -0.00  -0.00  -0.00
   8   1     0.01   0.01  -0.05    -0.00  -0.00   0.00    -0.00   0.00   0.00
   9   6     0.00  -0.00   0.00    -0.00   0.00  -0.00    -0.00   0.00  -0.00
  10   8    -0.00   0.00   0.00    -0.00  -0.00  -0.00     0.00   0.00   0.00
  11   8    -0.00  -0.00  -0.00     0.00   0.00   0.00     0.00   0.00   0.00
  12   6     0.00   0.00  -0.00     0.00   0.00  -0.00     0.00   0.00  -0.00
  13   6    -0.00   0.00   0.00    -0.00  -0.00   0.00     0.00   0.00  -0.00
  14  16    -0.00  -0.00   0.00     0.00   0.00  -0.00     0.00   0.00  -0.00
  15  15    -0.00  -0.00  -0.00    -0.00   0.00   0.00     0.00   0.00   0.00
  16  16    -0.00   0.00   0.00     0.00   0.00   0.00     0.00   0.00   0.00
  17   8     0.00   0.00   0.00    -0.00   0.00  -0.00    -0.01   0.00  -0.00
  18   6    -0.00  -0.00  -0.00     0.00   0.00   0.00    -0.17   0.20   0.08
  19   8     0.00   0.00   0.00     0.00  -0.01   0.00     0.00  -0.00  -0.00
  20   6     0.00  -0.00  -0.00    -0.20  -0.18   0.03     0.00   0.00  -0.00
  21   1     0.01   0.01  -0.01     0.00   0.00  -0.00     0.00   0.00  -0.00
  22   1    -0.00  -0.00   0.00    -0.00  -0.00  -0.00     0.00   0.00   0.01
  23   1    -0.00   0.00   0.00    -0.00   0.00   0.00    -0.00  -0.00  -0.00
  24   1    -0.01  -0.01   0.01    -0.00  -0.00   0.00    -0.00  -0.00   0.00
  25   1    -0.00  -0.00  -0.00     0.00   0.00   0.00    -0.00   0.00  -0.00
  26   1     0.06   0.04   0.02    -0.00  -0.00   0.00    -0.00  -0.00   0.00
  27   1     0.21   0.16  -0.92    -0.00  -0.00   0.01    -0.00  -0.00   0.00
  28   1    -0.00  -0.00   0.00    -0.00  -0.00   0.00    -0.00  -0.00   0.00
  29   1    -0.00   0.00  -0.00    -0.00  -0.00  -0.00     0.00   0.00   0.00
  30   1    -0.00   0.00   0.00     0.01   0.01  -0.00    -0.01  -0.01   0.00
  31   1     0.00  -0.00   0.00    -0.00  -0.00   0.00    -0.00   0.00  -0.00
  32   1    -0.00  -0.00  -0.00    -0.00   0.00   0.00     0.00  -0.00  -0.00
  33   1    -0.00  -0.00   0.01    -0.00   0.00  -0.00     0.01   0.04  -0.06
  34   1     0.00  -0.00  -0.00     0.00  -0.00  -0.00     0.66  -0.65  -0.21
  35   1     0.00   0.01  -0.00    -0.00  -0.01   0.00    -0.07  -0.10   0.02
  36   1     0.01   0.01  -0.00     0.66   0.68  -0.12    -0.00  -0.00   0.00
  37   1    -0.00  -0.00  -0.01     0.01  -0.01   0.06    -0.00   0.00  -0.00
  38   1    -0.00   0.00   0.01     0.01  -0.03  -0.06    -0.00   0.00   0.00
                    103                    104                    105
                        a                      a                      a 
 Frequencies --  3037.1784              3040.9187              3050.2877
 Red. masses --     1.7823                 1.8104                 1.6231
 Frc consts  --     0.0000                 0.0000                 0.0000
 IR Inten    --    33.6671                33.0127                21.6768
 Raman Activ --     0.0000                 0.0000                 0.0000
 Depolar     --     0.0000                 0.0000                 0.0000
 Atom AN      X      Y      Z        X      Y      Z        X      Y      Z
   1   6     0.00   0.00   0.00     0.11   0.16  -0.19    -0.11  -0.04  -0.20
   2   6     0.00   0.00   0.00     0.02   0.02  -0.03    -0.01  -0.00  -0.02
   3   8    -0.00   0.00   0.00    -0.00   0.00  -0.00     0.00   0.00  -0.00
   4   6     0.00  -0.00  -0.00     0.00  -0.00  -0.00    -0.00  -0.00  -0.00
   5   8    -0.00   0.00   0.00    -0.00   0.00   0.00     0.00  -0.00   0.00
   6   6     0.00   0.00   0.00    -0.00  -0.00   0.00     0.00   0.00  -0.00
   7   6     0.00   0.00  -0.00    -0.00  -0.00   0.00    -0.00  -0.00   0.00
   8   1    -0.00  -0.00   0.00     0.00   0.00  -0.00     0.00   0.00  -0.00
   9   6    -0.00   0.00   0.00    -0.00   0.00   0.00     0.00  -0.00  -0.00
  10   8     0.00  -0.00  -0.00     0.00   0.00   0.00    -0.00   0.00   0.00
  11   8    -0.00  -0.00  -0.00    -0.00  -0.00  -0.00     0.00   0.00  -0.00
  12   6    -0.04  -0.01   0.01     0.00   0.00   0.00     0.00  -0.00   0.00
  13   6    -0.22  -0.11   0.08    -0.00   0.00   0.00     0.01  -0.01   0.00
  14  16     0.00   0.00   0.00     0.00   0.00  -0.00    -0.00  -0.00  -0.00
  15  15    -0.00  -0.00  -0.00    -0.00  -0.00   0.00     0.00  -0.00   0.00
  16  16    -0.00  -0.00   0.00     0.00  -0.00   0.00    -0.00  -0.00  -0.00
  17   8    -0.00  -0.00   0.00     0.00  -0.00  -0.00    -0.00  -0.00   0.00
  18   6    -0.00   0.00   0.00    -0.00   0.00  -0.00     0.00  -0.00  -0.00
  19   8    -0.00   0.00   0.00     0.00   0.00  -0.00    -0.00   0.00   0.00
  20   6     0.00   0.00   0.00    -0.00  -0.00   0.00    -0.00   0.00   0.00
  21   1    -0.00  -0.00   0.00    -0.47  -0.59   0.57     0.07   0.09  -0.13
  22   1    -0.00  -0.00  -0.00     0.07   0.04   0.13     0.34   0.07   0.89
  23   1     0.00  -0.00  -0.00     0.02  -0.00  -0.03    -0.01  -0.04  -0.04
  24   1     0.00   0.00  -0.00    -0.06  -0.07   0.08    -0.00  -0.00   0.00
  25   1    -0.00  -0.00  -0.00     0.01   0.00   0.02     0.02   0.00   0.05
  26   1    -0.01  -0.00   0.00     0.00   0.00   0.00     0.00   0.00  -0.00
  27   1     0.00   0.00  -0.00     0.00   0.00  -0.01    -0.00  -0.00   0.00
  28   1     0.09   0.05  -0.04    -0.00  -0.00   0.00     0.00   0.00  -0.00
  29   1     0.02  -0.01   0.01    -0.00   0.00  -0.00    -0.00   0.00  -0.00
  30   1     0.75   0.49  -0.33    -0.00   0.00   0.00     0.01   0.00  -0.00
  31   1     0.08  -0.08   0.04     0.00  -0.00   0.00    -0.03   0.02  -0.01
  32   1    -0.03  -0.02   0.01    -0.00  -0.00  -0.00     0.00   0.01   0.00
  33   1    -0.00   0.00   0.00    -0.00  -0.00   0.00    -0.00  -0.00   0.00
  34   1     0.01  -0.01  -0.00     0.00  -0.00  -0.00    -0.01   0.01   0.00
  35   1    -0.00  -0.01   0.00    -0.00  -0.00   0.00     0.00   0.00  -0.00
  36   1    -0.01  -0.01   0.00     0.00   0.00  -0.00    -0.00  -0.00   0.00
  37   1    -0.00  -0.00  -0.00     0.00   0.00   0.00    -0.00  -0.00  -0.00
  38   1     0.00  -0.00  -0.00     0.00  -0.00  -0.00     0.00  -0.00  -0.00
                    106                    107                    108
                        a                      a                      a 
 Frequencies --  3055.4339              3062.1982              3064.5956
 Red. masses --     1.6025                 1.7753                 1.7292
 Frc consts  --     0.0000                 0.0000                 0.0000
 IR Inten    --    18.8457                20.3461                15.1668
 Raman Activ --     0.0000                 0.0000                 0.0000
 Depolar     --     0.0000                 0.0000                 0.0000
 Atom AN      X      Y      Z        X      Y      Z        X      Y      Z
   1   6    -0.00   0.00  -0.00    -0.00   0.02   0.01     0.03  -0.24  -0.09
   2   6    -0.00   0.00  -0.00    -0.00   0.00   0.00    -0.00  -0.01  -0.00
   3   8    -0.00  -0.00  -0.00    -0.00  -0.00  -0.00     0.00   0.00   0.00
   4   6    -0.00   0.00   0.00     0.00  -0.00  -0.00     0.00   0.00  -0.00
   5   8    -0.00   0.00  -0.00    -0.00   0.00   0.00    -0.00   0.00   0.00
   6   6    -0.00  -0.00  -0.00    -0.00  -0.00  -0.00    -0.00  -0.00  -0.00
   7   6     0.00  -0.00  -0.00    -0.00   0.00   0.00    -0.00  -0.00   0.00
   8   1    -0.00   0.00  -0.00     0.00   0.00  -0.00     0.00   0.00  -0.00
   9   6    -0.00   0.00  -0.00    -0.00  -0.00  -0.00    -0.00   0.00   0.00
  10   8     0.00  -0.00  -0.00     0.00  -0.00  -0.00     0.00  -0.00  -0.00
  11   8    -0.00  -0.00   0.00     0.00  -0.00   0.00     0.00  -0.00   0.00
  12   6    -0.02   0.01  -0.01    -0.00   0.01  -0.00    -0.00   0.00  -0.00
  13   6    -0.18   0.11  -0.09    -0.02   0.25   0.08    -0.01   0.02   0.00
  14  16    -0.00  -0.00  -0.00    -0.00   0.00  -0.00    -0.00  -0.00  -0.00
  15  15     0.00   0.00   0.00    -0.00  -0.00   0.00    -0.00  -0.00   0.00
  16  16    -0.00   0.00  -0.00     0.00   0.00  -0.00     0.00  -0.00  -0.00
  17   8    -0.00  -0.00  -0.00     0.00   0.00  -0.00     0.00  -0.00  -0.00
  18   6    -0.00   0.00   0.00     0.00  -0.00  -0.00    -0.00   0.00  -0.00
  19   8    -0.00  -0.00   0.00     0.00   0.00   0.00    -0.00   0.00  -0.00
  20   6    -0.00  -0.00  -0.00    -0.00  -0.00  -0.00     0.00   0.00   0.00
  21   1     0.00   0.01  -0.01     0.00   0.01  -0.00    -0.01  -0.04  -0.00
  22   1     0.01   0.00   0.03     0.00   0.00   0.01     0.01  -0.03   0.02
  23   1     0.00  -0.02  -0.01     0.01  -0.07  -0.03    -0.10   0.90   0.31
  24   1    -0.00   0.00   0.00    -0.00   0.00   0.00     0.01   0.01  -0.01
  25   1     0.00   0.00   0.00     0.00   0.00   0.00     0.00   0.00   0.01
  26   1     0.00   0.00  -0.00     0.00   0.00  -0.00     0.00   0.00  -0.00
  27   1    -0.00  -0.00   0.00    -0.00  -0.00   0.00    -0.00  -0.00   0.00
  28   1     0.00   0.00  -0.00    -0.01  -0.01   0.01    -0.00  -0.00   0.00
  29   1     0.05  -0.02   0.01     0.02  -0.01   0.01     0.00  -0.00   0.00
  30   1    -0.13  -0.05   0.04    -0.02   0.02   0.01    -0.00   0.00   0.00
  31   1     0.80  -0.44   0.27     0.08  -0.01   0.04     0.02  -0.01   0.01
  32   1    -0.03   0.11   0.03     0.02  -0.89  -0.35     0.00  -0.07  -0.03
  33   1    -0.00   0.00  -0.00    -0.00  -0.00   0.00    -0.00  -0.00   0.00
  34   1     0.00  -0.00  -0.00    -0.00   0.00   0.00     0.00  -0.00  -0.00
  35   1    -0.00  -0.00   0.00     0.00   0.00  -0.00     0.00   0.00   0.00
  36   1     0.00   0.00  -0.00     0.00   0.00  -0.00    -0.00  -0.00   0.00
  37   1     0.00   0.00   0.00     0.00   0.00   0.00    -0.00  -0.00  -0.00
  38   1    -0.00   0.00   0.00    -0.00   0.00   0.00     0.00  -0.00  -0.00
