      -----------------------------------------------------------      
     |                   =====================                   |     
     |                           x T B                           |     
     |                   =====================                   |     
     |                         S. Grimme                         |     
     |          Mulliken Center for Theoretical Chemistry        |     
     |                    University of Bonn                     |     
      -----------------------------------------------------------      

   * xtb version 6.7.1 (edcfbbe) compiled by 'albert@albert-system' on 2024-07-22

   xtb is free software: you can redistribute it and/or modify it under
   the terms of the GNU Lesser General Public License as published by
   the Free Software Foundation, either version 3 of the License, or
   (at your option) any later version.
   
   xtb is distributed in the hope that it will be useful,
   but WITHOUT ANY WARRANTY; without even the implied warranty of
   MERCHANTABILITY or FITNESS FOR A PARTICULAR PURPOSE.  See the
   GNU Lesser General Public License for more details.
   
   Cite this work as:
   * C. Bannwarth, E. Caldeweyher, S. Ehlert, A. Hansen, P. Pracht,
     J. Seibert, S. Spicher, S. Grimme, WIREs Comput. Mol. Sci., 2020, 11,
     e01493. DOI: 10.1002/wcms.1493
   
   for GFN2-xTB:
   * C. Bannwarth, S. Ehlert and S. Grimme., J. Chem. Theory Comput., 2019,
     15, 1652-1671. DOI: 10.1021/acs.jctc.8b01176
   for GFN1-xTB:
   * S. Grimme, C. Bannwarth, P. Shushkov, J. Chem. Theory Comput., 2017,
     13, 1989-2009. DOI: 10.1021/acs.jctc.7b00118
   for GFN0-xTB:
   * P. Pracht, E. Caldeweyher, S. Ehlert, S. Grimme, ChemRxiv, 2019, preprint.
     DOI: 10.26434/chemrxiv.8326202.v1
   for GFN-FF:
   * S. Spicher and S. Grimme, Angew. Chem. Int. Ed., 2020, 59, 15665-15673.
     DOI: 10.1002/anie.202004239
   
   for ALPB and GBSA implicit solvation:
   * S. Ehlert, M. Stahn, S. Spicher, S. Grimme, J. Chem. Theory Comput.,
     2021, 17, 4250-4261. DOI: 10.1021/acs.jctc.1c00471
   
   for ddCOSMO and CPCM-X implicit solvation:
   * M. Stahn, S. Ehlert, S. Grimme, J. Phys. Chem. A,
     2023, XX, XXXX-XXXX. DOI: 10.1021/acs.jpca.3c04382
   
   for DFT-D4:
   * E. Caldeweyher, C. Bannwarth and S. Grimme, J. Chem. Phys., 2017,
     147, 034112. DOI: 10.1063/1.4993215
   * E. Caldeweyher, S. Ehlert, A. Hansen, H. Neugebauer, S. Spicher,
     C. Bannwarth and S. Grimme, J. Chem. Phys., 2019, 150, 154122.
     DOI: 10.1063/1.5090222
   * E. Caldeweyher, J.-M. Mewes, S. Ehlert and S. Grimme, Phys. Chem. Chem. Phys.
     2020, 22, 8499-8512. DOI: 10.1039/D0CP00502A
   
   for sTDA-xTB:
   * S. Grimme and C. Bannwarth, J. Chem. Phys., 2016, 145, 054103.
     DOI: 10.1063/1.4959605
   
   in the mass-spec context:
   * V. Asgeirsson, C. Bauer and S. Grimme, Chem. Sci., 2017, 8, 4879.
     DOI: 10.1039/c7sc00601b
   * J. Koopman and S. Grimme, ACS Omega 2019, 4, 12, 15120-15133.
     DOI: 10.1021/acsomega.9b02011
   
   for metadynamics refer to:
   * S. Grimme, J. Chem. Theory Comput., 2019, 155, 2847-2862
     DOI: 10.1021/acs.jctc.9b00143
   
   for SPH calculations refer to:
   * S. Spicher and S. Grimme, J. Chem. Theory Comput., 2021, 17, 1701-1714
     DOI: 10.1021/acs.jctc.0c01306
   
   for ONIOM refer to:
   * C. Plett, A. Katbashev, S. Ehlert, S. Grimme, M. Bursch,
     Phys. Chem. Chem. Phys., 2023, 25, 17860-17868. DOI: 10.1039/D3CP02178E
   
   for DIPRO refer to:
   * J. Kohn, N. Gildemeister, S. Grimme, D. Fazzi, A. Hansen,
     J. Chem. Phys., 2023, just accepted.
   
   for PTB refer to:
   * S. Grimme, M. Mueller, A. Hansen, J. Chem. Phys., 2023, 158, 124111.
     DOI: 10.1063/5.0137838
   
   with help from (in alphabetical order)
   P. Atkinson, C. Bannwarth, F. Bohle, G. Brandenburg, E. Caldeweyher
   M. Checinski, S. Dohm, S. Ehlert, S. Ehrlich, I. Gerasimov, C. Hölzer
   A. Katbashev, J. Kohn, J. Koopman, C. Lavigne, S. Lehtola, F. März, M. Müller,
   F. Musil, H. Neugebauer, J. Pisarek, C. Plett, P. Pracht, F. Pultar,
   J. Seibert, P. Shushkov, S. Spicher, M. Stahn, M. Steiner, T. Strunk,
   J. Stückrath, T. Rose, and J. Unsleber
   
 * started run on 2025/04/03 at 19:48:39.188     
   ID    Z sym.   atoms
    1    6 C      1-7, 9
    2    8 O      8
    3    1 H      10-19

           -------------------------------------------------
          |                Calculation Setup                |
           -------------------------------------------------

          program call               : /srv/scratch/z5358697/.xtb/bin/xtb xtb_rrho.coord --gfn2 --bhess vtight --chrg 0 --enso --norestart -I rrho-xcontrol-inp --parallel 1 --alpb water
          hostname                   : k156
          coordinate file            : xtb_rrho.coord
          omp threads                :                     1


           -------------------------------------------------
          |                 G F N 2 - x T B                 |
           -------------------------------------------------

        Reference                      10.1021/acs.jctc.8b01176
      * Hamiltonian:
        H0-scaling (s, p, d)           1.850000    2.230000    2.230000
        zeta-weighting                 0.500000
      * Dispersion:
        s8                             2.700000
        a1                             0.520000
        a2                             5.000000
        s9                             5.000000
      * Repulsion:
        kExp                           1.500000    1.000000
        rExp                           1.000000
      * Coulomb:
        alpha                          2.000000
        third order                    shell-resolved
        anisotropic                    true
        a3                             3.000000
        a5                             4.000000
        cn-shift                       1.200000
        cn-exp                         4.000000
        max-rad                        5.000000

      * Solvation model:               ALPB
        Solvent                        water
        Parameter file                 internal GFN2-xTB/ALPB
        Dielectric constant                8.0200E+01
        Reference state                gsolv [1 M gas/solution]
        Free energy shift                  1.0808E-03 Eh       6.7819E-01 kcal/mol
        Temperature                        2.9815E+02 K
        Density                            1.0000E+00 kg/L
        Solvent mass                       1.8000E+01 g/mol
        Interaction kernel             P16
        Born radius scaling (c1)           1.4744E+00
        Born radii integrator          GBOBC
        Born offset                        0.0000E+00 a0       0.0000E+00 AA
        H-bond correction              true
        Ion screening                  false
        Surface tension                    1.0000E-05 Eh       1.5569E+01 dyn/cm
        Grid points                               974 per atom

          ...................................................
          :                      SETUP                      :
          :.................................................:
          :  # basis functions                  46          :
          :  # atomic orbitals                  46          :
          :  # shells                           28          :
          :  # electrons                        48          :
          :  max. iterations                   250          :
          :  Hamiltonian                  GFN2-xTB          :
          :  restarted?                      false          :
          :  GBSA solvation                   true          :
          :  PC potential                    false          :
          :  electronic temp.          300.0000000     K    :
          :  accuracy                    1.0000000          :
          :  -> integral cutoff          0.2500000E+02      :
          :  -> integral neglect         0.1000000E-07      :
          :  -> SCF convergence          0.1000000E-05 Eh   :
          :  -> wf. convergence          0.1000000E-03 e    :
          :  Broyden damping             0.4000000          :
          :  net charge                          0          :
          :  unpaired electrons                  0          :
          ...................................................

 iter      E             dE          RMSdq      gap      omega  full diag
   1    -26.6873495 -0.266873E+02  0.405E+00    4.29       0.0  T
   2    -26.6952819 -0.793242E-02  0.231E+00    4.24       1.0  T
   3    -26.6948898  0.392152E-03  0.443E-01    4.16       1.0  T
   4    -26.6961305 -0.124077E-02  0.177E-01    4.22       1.0  T
   5    -26.6963799 -0.249414E-03  0.618E-02    4.23       1.0  T
   6    -26.6963843 -0.431642E-05  0.323E-02    4.23       1.0  T
   7    -26.6963876 -0.329856E-05  0.101E-02    4.23       2.3  T
   8    -26.6963881 -0.502818E-06  0.326E-03    4.23       7.0  T
   9    -26.6963881 -0.309656E-08  0.166E-03    4.23      13.8  T
  10    -26.6963881 -0.185995E-07  0.453E-04    4.23      50.7  T
  11    -26.6963881 -0.661657E-09  0.216E-04    4.23     106.2  T

   *** convergence criteria satisfied after 11 iterations ***

         #    Occupation            Energy/Eh            Energy/eV
      -------------------------------------------------------------
         1        2.0000           -0.6986687             -19.0117
       ...           ...                  ...                  ...
        18        2.0000           -0.4657991             -12.6750
        19        2.0000           -0.4468047             -12.1582
        20        2.0000           -0.4421734             -12.0322
        21        2.0000           -0.4233724             -11.5205
        22        2.0000           -0.4186469             -11.3920
        23        2.0000           -0.3842183             -10.4551
        24        2.0000           -0.3714217             -10.1069 (HOMO)
        25                         -0.2159407              -5.8760 (LUMO)
        26                         -0.2080216              -5.6606
        27                         -0.0893690              -2.4319
        28                          0.0529189               1.4400
        29                          0.0852589               2.3200
       ...                                ...                  ...
        46                          0.6418331              17.4652
      -------------------------------------------------------------
                  HL-Gap            0.1554810 Eh            4.2309 eV
             Fermi-level           -0.2936812 Eh           -7.9915 eV

 SCC (total)                   0 d,  0 h,  0 min,  0.014 sec
 SCC setup                      ...        0 min,  0.001 sec (  8.304%)
 Dispersion                     ...        0 min,  0.000 sec (  0.865%)
 classical contributions        ...        0 min,  0.000 sec (  0.168%)
 integral evaluation            ...        0 min,  0.002 sec ( 12.142%)
 iterations                     ...        0 min,  0.007 sec ( 45.443%)
 molecular gradient             ...        0 min,  0.005 sec ( 31.933%)
 printout                       ...        0 min,  0.000 sec (  0.998%)

         :::::::::::::::::::::::::::::::::::::::::::::::::::::
         ::                     SUMMARY                     ::
         :::::::::::::::::::::::::::::::::::::::::::::::::::::
         :: total energy             -26.295962020952 Eh    ::
         :: total w/o Gsasa/hb       -26.292494277661 Eh    ::
         :: gradient norm              0.023116205156 Eh/a0 ::
         :: HOMO-LUMO gap              4.230854251599 eV    ::
         ::.................................................::
         :: SCC energy               -26.696334866385 Eh    ::
         :: -> isotropic ES            0.029950241619 Eh    ::
         :: -> anisotropic ES          0.006139414539 Eh    ::
         :: -> anisotropic XC          0.011614777846 Eh    ::
         :: -> dispersion             -0.014581927640 Eh    ::
         :: -> Gsolv                  -0.007382967869 Eh    ::
         ::    -> Gelec               -0.003915224578 Eh    ::
         ::    -> Gsasa               -0.000454333369 Eh    ::
         ::    -> Ghb                 -0.004094169620 Eh    ::
         ::    -> Gshift               0.001080759698 Eh    ::
         :: repulsion energy           0.400372845433 Eh    ::
         :: add. restraining           0.000000000000 Eh    ::
         :: total charge               0.000000000000 e     ::
         :::::::::::::::::::::::::::::::::::::::::::::::::::::

metadynamics with 1 initial structures loaded
           -------------------------------------------------
          |           Optimal kpush determination           |
           -------------------------------------------------
      ----------------------------------------------------------- 
     |                   =====================                   |
     |                        A N C O P T                        |
     |                   =====================                   |
     |               Approximate Normal Coordinate               |
     |                Rational Function Optimizer                |
      ----------------------------------------------------------- 
target rmsd / Å         0.100000
unbiased initial rmsd   0.387519
 
iter. min.        max.        rmsd       kpush
      ----------------------------------------------------------- 
     |                   =====================                   |
     |                        A N C O P T                        |
     |                   =====================                   |
     |               Approximate Normal Coordinate               |
     |                Rational Function Optimizer                |
      ----------------------------------------------------------- 
 1    0.000000    0.863636    0.011228   -0.431818
      ----------------------------------------------------------- 
     |                   =====================                   |
     |                        A N C O P T                        |
     |                   =====================                   |
     |               Approximate Normal Coordinate               |
     |                Rational Function Optimizer                |
      ----------------------------------------------------------- 
 2    0.000000    0.431818    0.014495   -0.215909
      ----------------------------------------------------------- 
     |                   =====================                   |
     |                        A N C O P T                        |
     |                   =====================                   |
     |               Approximate Normal Coordinate               |
     |                Rational Function Optimizer                |
      ----------------------------------------------------------- 
 3    0.000000    0.215909    0.017563   -0.107955
      ----------------------------------------------------------- 
     |                   =====================                   |
     |                        A N C O P T                        |
     |                   =====================                   |
     |               Approximate Normal Coordinate               |
     |                Rational Function Optimizer                |
      ----------------------------------------------------------- 
 4    0.000000    0.107955    0.020178   -0.053977
      ----------------------------------------------------------- 
     |                   =====================                   |
     |                        A N C O P T                        |
     |                   =====================                   |
     |               Approximate Normal Coordinate               |
     |                Rational Function Optimizer                |
      ----------------------------------------------------------- 
 5    0.000000    0.053977    0.022438   -0.026989
      ----------------------------------------------------------- 
     |                   =====================                   |
     |                        A N C O P T                        |
     |                   =====================                   |
     |               Approximate Normal Coordinate               |
     |                Rational Function Optimizer                |
      ----------------------------------------------------------- 
 6    0.000000    0.026989    0.035121   -0.013494
      ----------------------------------------------------------- 
     |                   =====================                   |
     |                        A N C O P T                        |
     |                   =====================                   |
     |               Approximate Normal Coordinate               |
     |                Rational Function Optimizer                |
      ----------------------------------------------------------- 
 7    0.000000    0.013494    0.203631   -0.006747
      ----------------------------------------------------------- 
     |                   =====================                   |
     |                        A N C O P T                        |
     |                   =====================                   |
     |               Approximate Normal Coordinate               |
     |                Rational Function Optimizer                |
      ----------------------------------------------------------- 
 8    0.006747    0.013494    0.087729   -0.010121
      ----------------------------------------------------------- 
     |                   =====================                   |
     |                        A N C O P T                        |
     |                   =====================                   |
     |               Approximate Normal Coordinate               |
     |                Rational Function Optimizer                |
      ----------------------------------------------------------- 
 9    0.006747    0.010121    0.143201   -0.008434
      ----------------------------------------------------------- 
     |                   =====================                   |
     |                        A N C O P T                        |
     |                   =====================                   |
     |               Approximate Normal Coordinate               |
     |                Rational Function Optimizer                |
      ----------------------------------------------------------- 
10    0.008434    0.010121    0.113910   -0.009277
final kpush: -0.009277
           -------------------------------------------------
          |            Biased Numerical Hessian             |
           -------------------------------------------------
kpush                :  -0.00928
alpha                :   1.00000
step length          :   0.00500
SCC accuracy         :   0.30000
Hessian scale factor :   1.00000
frozen atoms in %    :   0.00000    0
RMS gradient         :   0.00005
estimated CPU  time      0.02 min
estimated wall time      0.02 min

writing file <hessian>.

 projected vibrational frequencies (cm⁻¹)
eigval :       -0.00    -0.00     0.00     0.00     0.00     0.00
eigval :      -53.01   118.92    91.97   206.86   268.88   278.01
eigval :      307.88   346.46   460.71   468.38   487.08   511.27
eigval :      524.32   667.45   698.75   794.10   811.78   890.18
eigval :      912.61   931.71   997.54  1025.22  1030.29  1035.00
eigval :     1125.91  1137.74  1196.38  1191.36  1250.37  1293.16
eigval :     1337.94  1399.17  1399.94  1452.73  1463.27  1462.39
eigval :     1474.28  1486.06  1490.39  1594.28  1599.30  2998.24
eigval :     3002.81  3021.09  3023.78  3036.78  3045.38  3068.89
eigval :     3072.57  3088.24  3460.95
           -------------------------------------------------
          |                Property Printout                |
           -------------------------------------------------

    * Orbital Energies and Occupations

         #    Occupation            Energy/Eh            Energy/eV
      -------------------------------------------------------------
         1        2.0000           -0.7009059             -19.0726
       ...           ...                  ...                  ...
        12        2.0000           -0.5008090             -13.6277
        13        2.0000           -0.4842933             -13.1783
        14        2.0000           -0.4812788             -13.0963
        15        2.0000           -0.4769420             -12.9783
        16        2.0000           -0.4713686             -12.8266
        17        2.0000           -0.4688830             -12.7590
        18        2.0000           -0.4648444             -12.6491
        19        2.0000           -0.4466280             -12.1534
        20        2.0000           -0.4433627             -12.0645
        21        2.0000           -0.4226392             -11.5006
        22        2.0000           -0.4168061             -11.3419
        23        2.0000           -0.3845402             -10.4639
        24        2.0000           -0.3706450             -10.0858 (HOMO)
        25                         -0.2125210              -5.7830 (LUMO)
        26                         -0.2052930              -5.5863
        27                         -0.0835350              -2.2731
        28                          0.0624669               1.6998
        29                          0.0955097               2.5990
        30                          0.1222333               3.3261
        31                          0.1438763               3.9151
        32                          0.1455395               3.9603
        33                          0.1752751               4.7695
        34                          0.1984354               5.3997
        35                          0.2097211               5.7068
       ...                                ...                  ...
        46                          0.6666298              18.1399
      -------------------------------------------------------------
                  HL-Gap            0.1581240 Eh            4.3028 eV
             Fermi-level           -0.2915830 Eh           -7.9344 eV

     #   Z          covCN         q      C6AA      α(0)
     1   6 C        3.757    -0.118    22.806     6.809
     2   6 C        2.961    -0.027    28.669     8.782
     3   6 C        2.928    -0.054    29.338     8.883
     4   6 C        2.915    -0.053    29.314     8.878
     5   6 C        2.925    -0.053    29.318     8.880
     6   6 C        2.965    -0.011    28.290     8.724
     7   6 C        2.854     0.123    25.298     8.244
     8   8 O        1.659    -0.450    21.846     6.310
     9   6 C        3.758    -0.113    22.717     6.795
    10   1 H        0.925     0.055     2.264     2.353
    11   1 H        0.925     0.045     2.383     2.414
    12   1 H        0.925     0.057     2.240     2.340
    13   1 H        0.926     0.034     2.526     2.485
    14   1 H        0.926     0.030     2.586     2.515
    15   1 H        0.926     0.032     2.552     2.498
    16   1 H        0.805     0.351     0.587     1.203
    17   1 H        0.925     0.055     2.258     2.350
    18   1 H        0.925     0.055     2.262     2.352
    19   1 H        0.925     0.043     2.413     2.429

 Mol. C6AA /au·bohr⁶  :       3686.973733
 Mol. C8AA /au·bohr⁸  :      86794.605612
 Mol. α(0) /au        :         95.244323


Wiberg/Mayer (AO) data.
largest (>0.10) Wiberg bond orders for each atom

 ---------------------------------------------------------------------------
     #   Z sym  total        # sym  WBO       # sym  WBO       # sym  WBO
 ---------------------------------------------------------------------------
     1   6 C    3.995 --     2 C    1.022    10 H    0.977    11 H    0.974
                            12 H    0.969
     2   6 C    3.986 --     3 C    1.405     7 C    1.366     1 C    1.022
     3   6 C    3.991 --     4 C    1.451     2 C    1.405    13 H    0.970
                             6 C    0.103
     4   6 C    3.992 --     3 C    1.451     5 C    1.421    14 H    0.971
     5   6 C    3.991 --     6 C    1.435     4 C    1.421    15 H    0.969
     6   6 C    3.988 --     5 C    1.435     7 C    1.333     9 C    1.028
                             3 C    0.103
     7   6 C    3.937 --     2 C    1.366     6 C    1.333     8 O    1.064
     8   8 O    2.079 --     7 C    1.064    16 H    0.845
     9   6 C    3.995 --     6 C    1.028    19 H    0.986    18 H    0.971
                            17 H    0.970
    10   1 H    0.997 --     1 C    0.977
    11   1 H    0.998 --     1 C    0.974
    12   1 H    0.997 --     1 C    0.969
    13   1 H    0.998 --     3 C    0.970
    14   1 H    0.999 --     4 C    0.971
    15   1 H    0.999 --     5 C    0.969
    16   1 H    0.877 --     8 O    0.845
    17   1 H    0.997 --     9 C    0.970
    18   1 H    0.997 --     9 C    0.971
    19   1 H    0.998 --     9 C    0.986
 ---------------------------------------------------------------------------

Topologies differ in total number of bonds
Writing topology from bond orders to xtbtopo.mol

molecular dipole:
                 x           y           z       tot (Debye)
 q only:       -0.600      -0.330       0.042
   full:       -0.777      -0.335       0.050       2.156
molecular quadrupole (traceless):
                xx          xy          yy          xz          yz          zz
 q only:        3.413       3.743      -0.431      -0.199      -0.283      -2.982
  q+dip:        5.037       4.932       0.413      -0.230      -0.355      -5.451
   full:        3.997       4.980      -0.392      -0.263      -0.323      -3.604

           -------------------------------------------------
          |                Geometry Summary                 |
           -------------------------------------------------

      molecular mass/u    :      122.1646996
   center of mass at/Å    :       -0.0014787       0.0013442       0.0002519
  moments of inertia/u·Å² :        0.2188027E+03   0.2861200E+03   0.4986559E+03
rotational constants/cm⁻¹ :        0.7704491E-01   0.5891804E-01   0.3380614E-01

 * 17 selected distances

     #   Z          #   Z                                           value/Å
     2   6 C        3   6 C                                       1.3910352
     3   6 C        4   6 C                                       1.3800825
     4   6 C        5   6 C                                       1.3848064
     5   6 C        6   6 C                                       1.3831881
     2   6 C        7   6 C                                       1.3956566
     6   6 C        7   6 C                                       1.4015398 (max)
     7   6 C        8   8 O                                       1.3665702
     1   6 C       10   1 H                                       1.0877751
     1   6 C       11   1 H                                       1.0871507
     1   6 C       12   1 H                                       1.0898711
     3   6 C       13   1 H                                       1.0803333
     4   6 C       14   1 H                                       1.0793808
     5   6 C       15   1 H                                       1.0800310
     8   8 O       16   1 H                                       0.9676597 (min)
     9   6 C       17   1 H                                       1.0890398
     9   6 C       18   1 H                                       1.0890776
     9   6 C       19   1 H                                       1.0860933

 * 4 distinct bonds (by element types)

   Z      Z             #   av. dist./Å        max./Å        min./Å
   1 H    6 C           9     1.0854170     1.0898711     1.0793808
   6 C    6 C           6     1.3893848     1.4015398     1.3800825
   1 H    8 O           1     0.9676597     0.9676597     0.9676597
   6 C    8 O           1     1.3665702     1.3665702     1.3665702

           -------------------------------------------------
          |               Frequency Printout                |
           -------------------------------------------------
 projected vibrational frequencies (cm⁻¹)
eigval :       -0.00    -0.00     0.00     0.00     0.00     0.00
eigval :      -53.01   118.92    91.97   206.86   268.88   278.01
eigval :      307.88   346.46   460.71   468.38   487.08   511.27
eigval :      524.32   667.45   698.75   794.10   811.78   890.18
eigval :      912.61   931.71   997.54  1025.22  1030.29  1035.00
eigval :     1125.91  1137.74  1196.38  1191.36  1250.37  1293.16
eigval :     1337.94  1399.17  1399.94  1452.73  1463.27  1462.39
eigval :     1474.28  1486.06  1490.39  1594.28  1599.30  2998.24
eigval :     3002.81  3021.09  3023.78  3036.78  3045.38  3068.89
eigval :     3072.57  3088.24  3460.95
 reduced masses (amu)
   1: 11.74   2: 10.75   3: 10.80   4: 11.70   5: 11.35   6: 10.15   7:  2.12   8: 10.36
   9:  1.24  10:  9.00  11:  9.59  12:  9.92  13:  6.91  14:  6.30  15: 10.01  16: 11.34
  17:  9.69  18: 10.22  19: 10.91  20: 11.27  21: 11.05  22:  2.92  23: 11.68  24:  3.60
  25:  3.11  26:  7.92  27:  4.68  28:  4.45  29:  4.70  30:  4.56  31:  6.56  32:  4.32
  33:  9.88  34:  3.23  35:  4.28  36:  9.32  37: 11.12  38:  3.11  39:  3.30  40:  8.49
  41:  7.59  42:  1.58  43:  3.37  44:  3.75  45:  2.15  46: 11.44  47: 11.38  48:  1.84
  49:  1.93  50:  1.53  51:  1.92  52:  1.36  53:  1.67  54:  1.75  55:  1.82  56:  1.90
  57:  1.86
 IR intensities (km·mol⁻¹)
   1:  0.21   2:  0.08   3:  0.19   4:  0.06   5:  0.11   6:  0.44   7:  0.86   8:  1.27
   9:  0.14  10:  2.00  11:  5.05  12:  3.47  13: 83.96  14: 94.23  15:  5.88  16:  0.30
  17:  2.78  18:  1.51  19:  4.11  20:  5.34  21: 10.49  22: 18.00  23: 30.79  24:  0.02
  25:  0.54  26: 20.50  27: 20.43  28: 21.33  29: 26.15  30:  2.31  31:101.04  32:227.60
  33:112.12  34: 52.39  35: 15.52  36: 71.99  37: 55.53  38:  1.44  39:  5.14  40:119.63
  41:  2.56  42:  2.36  43: 20.40  44: 27.80  45: 18.24  46: 35.81  47:  6.17  48: 39.08
  49: 35.17  50: 41.67  51: 58.64  52: 51.22  53: 50.80  54:  3.77  55:143.98  56:163.49
  57:175.80
 Raman intensities (Ä⁴*amu⁻¹)
   1:  0.00   2:  0.00   3:  0.00   4:  0.00   5:  0.00   6:  0.00   7:  0.00   8:  0.00
   9:  0.00  10:  0.00  11:  0.00  12:  0.00  13:  0.00  14:  0.00  15:  0.00  16:  0.00
  17:  0.00  18:  0.00  19:  0.00  20:  0.00  21:  0.00  22:  0.00  23:  0.00  24:  0.00
  25:  0.00  26:  0.00  27:  0.00  28:  0.00  29:  0.00  30:  0.00  31:  0.00  32:  0.00
  33:  0.00  34:  0.00  35:  0.00  36:  0.00  37:  0.00  38:  0.00  39:  0.00  40:  0.00
  41:  0.00  42:  0.00  43:  0.00  44:  0.00  45:  0.00  46:  0.00  47:  0.00  48:  0.00
  49:  0.00  50:  0.00  51:  0.00  52:  0.00  53:  0.00  54:  0.00  55:  0.00  56:  0.00
  57:  0.00
 output can be read by thermo (or use thermo option).
 writing <g98.out> molden fake output.
 recommended (thermochemical) frequency scaling factor: 1.0
           -------------------------------------------------
          |             Thermodynamic Functions             |
           -------------------------------------------------

Molecule has no symmetry elements
It seems to be the C1 point group
c1  symmetry found (for desy threshold:  0.10E+00) used in thermo
 inverting freq            1   53.0145489663820     

          ...................................................
          :                      SETUP                      :
          :.................................................:
          :  # frequencies                          51      :
          :  # imaginary freq.                       0      :
          :  linear?                             false      :
          :  only rotor calc.                    false      :
          :  symmetry                               c1      :
          :  rotational number                       1      :
          :  scaling factor                  1.0000000      :
          :  rotor cutoff                    0.0000000 cm⁻¹ :
          :  imag. cutoff                 -100.0000000 cm⁻¹ :
          :.................................................:

    mode    ω/cm⁻¹     T·S(HO)/kcal·mol⁻¹    T·S(FR)/kcal·mol⁻¹   T·S(vib)
   ------------------------------------------------------------------------
       1     53.01    -1.40179 (100.00%)    -1.03893 (  0.00%)    -1.40179
       2    118.92    -0.92958 (100.00%)    -0.79975 (  0.00%)    -0.92958
       3     91.97    -1.07859 (100.00%)    -0.87583 (  0.00%)    -1.07859
       4    206.86    -0.61754 (100.00%)    -0.63581 (  0.00%)    -0.61754
       5    268.88    -0.47805 (100.00%)    -0.55814 (  0.00%)    -0.47805
       6    278.01    -0.46091 (100.00%)    -0.54825 (  0.00%)    -0.46091
   ------------------------------------------------------------------------

   temp. (K)  partition function   enthalpy   heat capacity  entropy
                                   cal/mol     cal/K/mol   cal/K/mol   J/K/mol
 298.15  VIB   270.                 4095.061     28.825     24.862
         ROT  0.427E+06              888.752      2.981     28.744
         INT  0.115E+09             4983.813     31.805     53.606
         TR   0.131E+28             1481.254      4.968     40.296
         TOT                        6465.0673    36.7736    93.9021   392.8864

       T/K    H(0)-H(T)+PV         H(T)/Eh          T*S/Eh         G(T)/Eh
   ------------------------------------------------------------------------
    298.15    0.103027E-01    0.165427E+00    0.446159E-01    0.120811E+00
   ------------------------------------------------------------------------

         :::::::::::::::::::::::::::::::::::::::::::::::::::::
         ::                  THERMODYNAMIC                  ::
         :::::::::::::::::::::::::::::::::::::::::::::::::::::
         :: total free energy         -26.185601454758 Eh   ::
         ::.................................................::
         :: total energy              -26.306412742541 Eh   ::
         :: zero point energy           0.155124472164 Eh   ::
         :: G(RRHO) w/o ZPVE           -0.034313184381 Eh   ::
         :: G(RRHO) contrib.            0.120811287783 Eh   ::
         :::::::::::::::::::::::::::::::::::::::::::::::::::::
imag cut-off (cm-1) :    5.00
 found            1  significant imaginary frequency
 writing imag mode distorted coords to xtbhess.coord
 for further optimization.

optimized geometry written to: xtbopt.coord


           -------------------------------------------------
          | TOTAL ENERGY              -26.306412742541 Eh   |
          | TOTAL ENTHALPY            -26.140985529902 Eh   |
          | TOTAL FREE ENERGY         -26.185601454758 Eh   |
          | GRADIENT NORM               0.000051648668 Eh/α |
          | HOMO-LUMO GAP               4.302773484025 eV   |
           -------------------------------------------------

------------------------------------------------------------------------
 * finished run on 2025/04/03 at 19:48:42.829     
------------------------------------------------------------------------
 total:
 * wall-time:     0 d,  0 h,  0 min,  3.641 sec
 *  cpu-time:     0 d,  0 h,  0 min,  3.491 sec
 * ratio c/w:     0.959 speedup
 SCF:
 * wall-time:     0 d,  0 h,  0 min,  0.015 sec
 *  cpu-time:     0 d,  0 h,  0 min,  0.014 sec
 * ratio c/w:     0.991 speedup
 analytical hessian:
 * wall-time:     0 d,  0 h,  0 min,  1.140 sec
 *  cpu-time:     0 d,  0 h,  0 min,  1.131 sec
 * ratio c/w:     0.992 speedup

